n -t * -s 0  -x 50 -y 50 -Z 0 -z 10  -v circle -c black
n -t * -s 1  -x 50 -y 250 -Z 0 -z 10  -v circle -c black
n -t * -s 2  -x 50 -y 450 -Z 0 -z 10  -v circle -c black
n -t * -s 3  -x 50 -y 650 -Z 0 -z 10  -v circle -c black
n -t * -s 4  -x 50 -y 850 -Z 0 -z 10  -v circle -c black
n -t * -s 5  -x 250 -y 50 -Z 0 -z 10  -v circle -c black
n -t * -s 6  -x 250 -y 250 -Z 0 -z 10  -v circle -c black
n -t * -s 7  -x 250 -y 450 -Z 0 -z 10  -v circle -c black
n -t * -s 8  -x 250 -y 650 -Z 0 -z 10  -v circle -c black
n -t * -s 9  -x 250 -y 850 -Z 0 -z 10  -v circle -c black
n -t * -s 10  -x 450 -y 50 -Z 0 -z 10  -v circle -c black
n -t * -s 11  -x 450 -y 250 -Z 0 -z 10  -v circle -c black
n -t * -s 12  -x 450 -y 450 -Z 0 -z 10  -v circle -c black
n -t * -s 13  -x 450 -y 650 -Z 0 -z 10  -v circle -c black
n -t * -s 14  -x 450 -y 850 -Z 0 -z 10  -v circle -c black
n -t * -s 15  -x 650 -y 50 -Z 0 -z 10  -v circle -c black
n -t * -s 16  -x 650 -y 250 -Z 0 -z 10  -v circle -c black
n -t * -s 17  -x 650 -y 450 -Z 0 -z 10  -v circle -c black
n -t * -s 18  -x 650 -y 650 -Z 0 -z 10  -v circle -c black
n -t * -s 19  -x 650 -y 850 -Z 0 -z 10  -v circle -c black
n -t * -s 20  -x 850 -y 50 -Z 0 -z 10  -v circle -c black
n -t * -s 21  -x 850 -y 250 -Z 0 -z 10  -v circle -c black
n -t * -s 22  -x 850 -y 450 -Z 0 -z 10  -v circle -c black
n -t * -s 23  -x 850 -y 650 -Z 0 -z 10  -v circle -c black
n -t * -s 24  -x 850 -y 850 -Z 0 -z 10  -v circle -c black
V -t * -v 1.0a5 -a 0
W -t * -x 1000 -y 1000
A -t * -n 1 -p 0 -o 0x7fffffff -c 30 -a 1
A -t * -h 1 -m 1073741823 -s 0
+ -t 4.006838288 -s 15 -d -1 -p cbr -e 210 -c 2 -a 0 -i 0 -k AGT 
- -t 4.006838288 -s 15 -d -1 -p cbr -e 210 -c 2 -a 0 -i 0 -k AGT
h -t 4.006838288 -s 15 -d -1 -p cbr -e 210 -c 2 -a 0 -i 0 -k AGT
+ -t 4.174838288 -s 15 -d -1 -p cbr -e 210 -c 2 -a 0 -i 1 -k AGT 
- -t 4.174838288 -s 15 -d -1 -p cbr -e 210 -c 2 -a 0 -i 1 -k AGT
h -t 4.174838288 -s 15 -d -1 -p cbr -e 210 -c 2 -a 0 -i 1 -k AGT
+ -t 4.342838288 -s 15 -d -1 -p cbr -e 210 -c 2 -a 0 -i 2 -k AGT 
- -t 4.342838288 -s 15 -d -1 -p cbr -e 210 -c 2 -a 0 -i 2 -k AGT
h -t 4.342838288 -s 15 -d -1 -p cbr -e 210 -c 2 -a 0 -i 2 -k AGT
+ -t 4.510838288 -s 15 -d -1 -p cbr -e 210 -c 2 -a 0 -i 3 -k AGT 
- -t 4.510838288 -s 15 -d -1 -p cbr -e 210 -c 2 -a 0 -i 3 -k AGT
h -t 4.510838288 -s 15 -d -1 -p cbr -e 210 -c 2 -a 0 -i 3 -k AGT
+ -t 4.678838288 -s 15 -d -1 -p cbr -e 210 -c 2 -a 0 -i 4 -k AGT 
- -t 4.678838288 -s 15 -d -1 -p cbr -e 210 -c 2 -a 0 -i 4 -k AGT
h -t 4.678838288 -s 15 -d -1 -p cbr -e 210 -c 2 -a 0 -i 4 -k AGT
+ -t 4.846838288 -s 15 -d -1 -p cbr -e 210 -c 2 -a 0 -i 5 -k AGT 
- -t 4.846838288 -s 15 -d -1 -p cbr -e 210 -c 2 -a 0 -i 5 -k AGT
h -t 4.846838288 -s 15 -d -1 -p cbr -e 210 -c 2 -a 0 -i 5 -k AGT
+ -t 5.014838288 -s 15 -d -1 -p cbr -e 210 -c 2 -a 0 -i 6 -k AGT 
- -t 5.014838288 -s 15 -d -1 -p cbr -e 210 -c 2 -a 0 -i 6 -k AGT
h -t 5.014838288 -s 15 -d -1 -p cbr -e 210 -c 2 -a 0 -i 6 -k AGT
+ -t 5.182838288 -s 15 -d -1 -p cbr -e 210 -c 2 -a 0 -i 7 -k AGT 
- -t 5.182838288 -s 15 -d -1 -p cbr -e 210 -c 2 -a 0 -i 7 -k AGT
h -t 5.182838288 -s 15 -d -1 -p cbr -e 210 -c 2 -a 0 -i 7 -k AGT
+ -t 5.350838288 -s 15 -d -1 -p cbr -e 210 -c 2 -a 0 -i 8 -k AGT 
- -t 5.350838288 -s 15 -d -1 -p cbr -e 210 -c 2 -a 0 -i 8 -k AGT
h -t 5.350838288 -s 15 -d -1 -p cbr -e 210 -c 2 -a 0 -i 8 -k AGT
+ -t 5.518838288 -s 15 -d -1 -p cbr -e 210 -c 2 -a 0 -i 9 -k AGT 
- -t 5.518838288 -s 15 -d -1 -p cbr -e 210 -c 2 -a 0 -i 9 -k AGT
h -t 5.518838288 -s 15 -d -1 -p cbr -e 210 -c 2 -a 0 -i 9 -k AGT
r -t 5.629153667 -s 5 -d 5 -p cbr -e 230 -c 2 -a 0 -i 0 -k AGT
+ -t 5.686838288 -s 15 -d -1 -p cbr -e 210 -c 2 -a 0 -i 10 -k AGT 
- -t 5.686838288 -s 15 -d -1 -p cbr -e 210 -c 2 -a 0 -i 10 -k AGT
h -t 5.686838288 -s 15 -d -1 -p cbr -e 210 -c 2 -a 0 -i 10 -k AGT
r -t 5.689153667 -s 5 -d 5 -p cbr -e 230 -c 2 -a 0 -i 1 -k AGT
r -t 5.749153667 -s 5 -d 5 -p cbr -e 230 -c 2 -a 0 -i 2 -k AGT
r -t 5.809153667 -s 5 -d 5 -p cbr -e 230 -c 2 -a 0 -i 3 -k AGT
+ -t 5.854838288 -s 15 -d -1 -p cbr -e 210 -c 2 -a 0 -i 11 -k AGT 
- -t 5.854838288 -s 15 -d -1 -p cbr -e 210 -c 2 -a 0 -i 11 -k AGT
h -t 5.854838288 -s 15 -d -1 -p cbr -e 210 -c 2 -a 0 -i 11 -k AGT
+ -t 5.862495399 -s 11 -d -1 -p cbr -e 210 -c 2 -a 0 -i 12 -k AGT 
- -t 5.862495399 -s 11 -d -1 -p cbr -e 210 -c 2 -a 0 -i 12 -k AGT
h -t 5.862495399 -s 11 -d -1 -p cbr -e 210 -c 2 -a 0 -i 12 -k AGT
r -t 5.869153667 -s 5 -d 5 -p cbr -e 230 -c 2 -a 0 -i 4 -k AGT
r -t 5.929153667 -s 5 -d 5 -p cbr -e 230 -c 2 -a 0 -i 5 -k AGT
r -t 5.989153667 -s 5 -d 5 -p cbr -e 230 -c 2 -a 0 -i 6 -k AGT
+ -t 6.022838288 -s 15 -d -1 -p cbr -e 210 -c 2 -a 0 -i 13 -k AGT 
- -t 6.022838288 -s 15 -d -1 -p cbr -e 210 -c 2 -a 0 -i 13 -k AGT
h -t 6.022838288 -s 15 -d -1 -p cbr -e 210 -c 2 -a 0 -i 13 -k AGT
+ -t 6.030495399 -s 11 -d -1 -p cbr -e 210 -c 2 -a 0 -i 14 -k AGT 
- -t 6.030495399 -s 11 -d -1 -p cbr -e 210 -c 2 -a 0 -i 14 -k AGT
h -t 6.030495399 -s 11 -d -1 -p cbr -e 210 -c 2 -a 0 -i 14 -k AGT
r -t 6.049153667 -s 5 -d 5 -p cbr -e 230 -c 2 -a 0 -i 7 -k AGT
r -t 6.109153667 -s 5 -d 5 -p cbr -e 230 -c 2 -a 0 -i 8 -k AGT
r -t 6.169153667 -s 5 -d 5 -p cbr -e 230 -c 2 -a 0 -i 9 -k AGT
+ -t 6.190838288 -s 15 -d -1 -p cbr -e 210 -c 2 -a 0 -i 15 -k AGT 
- -t 6.190838288 -s 15 -d -1 -p cbr -e 210 -c 2 -a 0 -i 15 -k AGT
h -t 6.190838288 -s 15 -d -1 -p cbr -e 210 -c 2 -a 0 -i 15 -k AGT
+ -t 6.198495399 -s 11 -d -1 -p cbr -e 210 -c 2 -a 0 -i 16 -k AGT 
- -t 6.198495399 -s 11 -d -1 -p cbr -e 210 -c 2 -a 0 -i 16 -k AGT
h -t 6.198495399 -s 11 -d -1 -p cbr -e 210 -c 2 -a 0 -i 16 -k AGT
r -t 6.229153667 -s 5 -d 5 -p cbr -e 230 -c 2 -a 0 -i 10 -k AGT
r -t 6.289153667 -s 5 -d 5 -p cbr -e 230 -c 2 -a 0 -i 11 -k AGT
r -t 6.349153667 -s 5 -d 5 -p cbr -e 230 -c 2 -a 0 -i 13 -k AGT
+ -t 6.358838288 -s 15 -d -1 -p cbr -e 210 -c 2 -a 0 -i 17 -k AGT 
- -t 6.358838288 -s 15 -d -1 -p cbr -e 210 -c 2 -a 0 -i 17 -k AGT
h -t 6.358838288 -s 15 -d -1 -p cbr -e 210 -c 2 -a 0 -i 17 -k AGT
+ -t 6.366495399 -s 11 -d -1 -p cbr -e 210 -c 2 -a 0 -i 18 -k AGT 
- -t 6.366495399 -s 11 -d -1 -p cbr -e 210 -c 2 -a 0 -i 18 -k AGT
h -t 6.366495399 -s 11 -d -1 -p cbr -e 210 -c 2 -a 0 -i 18 -k AGT
r -t 6.409153667 -s 5 -d 5 -p cbr -e 230 -c 2 -a 0 -i 15 -k AGT
r -t 6.469153667 -s 5 -d 5 -p cbr -e 230 -c 2 -a 0 -i 17 -k AGT
+ -t 6.526838288 -s 15 -d -1 -p cbr -e 210 -c 2 -a 0 -i 19 -k AGT 
- -t 6.526838288 -s 15 -d -1 -p cbr -e 210 -c 2 -a 0 -i 19 -k AGT
h -t 6.526838288 -s 15 -d -1 -p cbr -e 210 -c 2 -a 0 -i 19 -k AGT
+ -t 6.534495399 -s 11 -d -1 -p cbr -e 210 -c 2 -a 0 -i 20 -k AGT 
- -t 6.534495399 -s 11 -d -1 -p cbr -e 210 -c 2 -a 0 -i 20 -k AGT
h -t 6.534495399 -s 11 -d -1 -p cbr -e 210 -c 2 -a 0 -i 20 -k AGT
r -t 6.589153667 -s 5 -d 5 -p cbr -e 230 -c 2 -a 0 -i 19 -k AGT
+ -t 6.694838288 -s 15 -d -1 -p cbr -e 210 -c 2 -a 0 -i 21 -k AGT 
- -t 6.694838288 -s 15 -d -1 -p cbr -e 210 -c 2 -a 0 -i 21 -k AGT
h -t 6.694838288 -s 15 -d -1 -p cbr -e 210 -c 2 -a 0 -i 21 -k AGT
+ -t 6.702495399 -s 11 -d -1 -p cbr -e 210 -c 2 -a 0 -i 22 -k AGT 
- -t 6.702495399 -s 11 -d -1 -p cbr -e 210 -c 2 -a 0 -i 22 -k AGT
h -t 6.702495399 -s 11 -d -1 -p cbr -e 210 -c 2 -a 0 -i 22 -k AGT
r -t 6.769153667 -s 5 -d 5 -p cbr -e 230 -c 2 -a 0 -i 21 -k AGT
+ -t 6.862838288 -s 15 -d -1 -p cbr -e 210 -c 2 -a 0 -i 23 -k AGT 
- -t 6.862838288 -s 15 -d -1 -p cbr -e 210 -c 2 -a 0 -i 23 -k AGT
h -t 6.862838288 -s 15 -d -1 -p cbr -e 210 -c 2 -a 0 -i 23 -k AGT
+ -t 6.870495399 -s 11 -d -1 -p cbr -e 210 -c 2 -a 0 -i 24 -k AGT 
- -t 6.870495399 -s 11 -d -1 -p cbr -e 210 -c 2 -a 0 -i 24 -k AGT
h -t 6.870495399 -s 11 -d -1 -p cbr -e 210 -c 2 -a 0 -i 24 -k AGT
r -t 6.949153667 -s 5 -d 5 -p cbr -e 230 -c 2 -a 0 -i 23 -k AGT
+ -t 7.030838288 -s 15 -d -1 -p cbr -e 210 -c 2 -a 0 -i 25 -k AGT 
- -t 7.030838288 -s 15 -d -1 -p cbr -e 210 -c 2 -a 0 -i 25 -k AGT
h -t 7.030838288 -s 15 -d -1 -p cbr -e 210 -c 2 -a 0 -i 25 -k AGT
+ -t 7.038495399 -s 11 -d -1 -p cbr -e 210 -c 2 -a 0 -i 26 -k AGT 
- -t 7.038495399 -s 11 -d -1 -p cbr -e 210 -c 2 -a 0 -i 26 -k AGT
h -t 7.038495399 -s 11 -d -1 -p cbr -e 210 -c 2 -a 0 -i 26 -k AGT
r -t 7.129153667 -s 5 -d 5 -p cbr -e 230 -c 2 -a 0 -i 25 -k AGT
+ -t 7.198838288 -s 15 -d -1 -p cbr -e 210 -c 2 -a 0 -i 27 -k AGT 
- -t 7.198838288 -s 15 -d -1 -p cbr -e 210 -c 2 -a 0 -i 27 -k AGT
h -t 7.198838288 -s 15 -d -1 -p cbr -e 210 -c 2 -a 0 -i 27 -k AGT
+ -t 7.206495399 -s 11 -d -1 -p cbr -e 210 -c 2 -a 0 -i 28 -k AGT 
- -t 7.206495399 -s 11 -d -1 -p cbr -e 210 -c 2 -a 0 -i 28 -k AGT
h -t 7.206495399 -s 11 -d -1 -p cbr -e 210 -c 2 -a 0 -i 28 -k AGT
r -t 7.249153667 -s 5 -d 5 -p cbr -e 230 -c 2 -a 0 -i 27 -k AGT
+ -t 7.366838288 -s 15 -d -1 -p cbr -e 210 -c 2 -a 0 -i 29 -k AGT 
- -t 7.366838288 -s 15 -d -1 -p cbr -e 210 -c 2 -a 0 -i 29 -k AGT
h -t 7.366838288 -s 15 -d -1 -p cbr -e 210 -c 2 -a 0 -i 29 -k AGT
+ -t 7.374495399 -s 11 -d -1 -p cbr -e 210 -c 2 -a 0 -i 30 -k AGT 
- -t 7.374495399 -s 11 -d -1 -p cbr -e 210 -c 2 -a 0 -i 30 -k AGT
h -t 7.374495399 -s 11 -d -1 -p cbr -e 210 -c 2 -a 0 -i 30 -k AGT
r -t 7.489153667 -s 5 -d 5 -p cbr -e 230 -c 2 -a 0 -i 29 -k AGT
+ -t 7.534838288 -s 15 -d -1 -p cbr -e 210 -c 2 -a 0 -i 31 -k AGT 
- -t 7.534838288 -s 15 -d -1 -p cbr -e 210 -c 2 -a 0 -i 31 -k AGT
h -t 7.534838288 -s 15 -d -1 -p cbr -e 210 -c 2 -a 0 -i 31 -k AGT
+ -t 7.542495399 -s 11 -d -1 -p cbr -e 210 -c 2 -a 0 -i 32 -k AGT 
- -t 7.542495399 -s 11 -d -1 -p cbr -e 210 -c 2 -a 0 -i 32 -k AGT
h -t 7.542495399 -s 11 -d -1 -p cbr -e 210 -c 2 -a 0 -i 32 -k AGT
r -t 7.609153667 -s 5 -d 5 -p cbr -e 230 -c 2 -a 0 -i 31 -k AGT
+ -t 7.702838288 -s 15 -d -1 -p cbr -e 210 -c 2 -a 0 -i 33 -k AGT 
- -t 7.702838288 -s 15 -d -1 -p cbr -e 210 -c 2 -a 0 -i 33 -k AGT
h -t 7.702838288 -s 15 -d -1 -p cbr -e 210 -c 2 -a 0 -i 33 -k AGT
+ -t 7.710495399 -s 11 -d -1 -p cbr -e 210 -c 2 -a 0 -i 34 -k AGT 
- -t 7.710495399 -s 11 -d -1 -p cbr -e 210 -c 2 -a 0 -i 34 -k AGT
h -t 7.710495399 -s 11 -d -1 -p cbr -e 210 -c 2 -a 0 -i 34 -k AGT
r -t 7.783153667 -s 18 -d 18 -p cbr -e 230 -c 2 -a 0 -i 12 -k AGT
r -t 7.843153667 -s 18 -d 18 -p cbr -e 230 -c 2 -a 0 -i 14 -k AGT
+ -t 7.870838288 -s 15 -d -1 -p cbr -e 210 -c 2 -a 0 -i 35 -k AGT 
- -t 7.870838288 -s 15 -d -1 -p cbr -e 210 -c 2 -a 0 -i 35 -k AGT
h -t 7.870838288 -s 15 -d -1 -p cbr -e 210 -c 2 -a 0 -i 35 -k AGT
+ -t 7.878495399 -s 11 -d -1 -p cbr -e 210 -c 2 -a 0 -i 36 -k AGT 
- -t 7.878495399 -s 11 -d -1 -p cbr -e 210 -c 2 -a 0 -i 36 -k AGT
h -t 7.878495399 -s 11 -d -1 -p cbr -e 210 -c 2 -a 0 -i 36 -k AGT
r -t 7.903153667 -s 18 -d 18 -p cbr -e 230 -c 2 -a 0 -i 16 -k AGT
r -t 7.963153667 -s 18 -d 18 -p cbr -e 230 -c 2 -a 0 -i 18 -k AGT
r -t 8.023153667 -s 18 -d 18 -p cbr -e 230 -c 2 -a 0 -i 20 -k AGT
+ -t 8.038838288 -s 15 -d -1 -p cbr -e 210 -c 2 -a 0 -i 37 -k AGT 
- -t 8.038838288 -s 15 -d -1 -p cbr -e 210 -c 2 -a 0 -i 37 -k AGT
h -t 8.038838288 -s 15 -d -1 -p cbr -e 210 -c 2 -a 0 -i 37 -k AGT
+ -t 8.046495399 -s 11 -d -1 -p cbr -e 210 -c 2 -a 0 -i 38 -k AGT 
- -t 8.046495399 -s 11 -d -1 -p cbr -e 210 -c 2 -a 0 -i 38 -k AGT
h -t 8.046495399 -s 11 -d -1 -p cbr -e 210 -c 2 -a 0 -i 38 -k AGT
r -t 8.083153667 -s 18 -d 18 -p cbr -e 230 -c 2 -a 0 -i 22 -k AGT
r -t 8.143153667 -s 18 -d 18 -p cbr -e 230 -c 2 -a 0 -i 24 -k AGT
r -t 8.203153667 -s 18 -d 18 -p cbr -e 230 -c 2 -a 0 -i 26 -k AGT
+ -t 8.206838288 -s 15 -d -1 -p cbr -e 210 -c 2 -a 0 -i 39 -k AGT 
- -t 8.206838288 -s 15 -d -1 -p cbr -e 210 -c 2 -a 0 -i 39 -k AGT
h -t 8.206838288 -s 15 -d -1 -p cbr -e 210 -c 2 -a 0 -i 39 -k AGT
+ -t 8.214495399 -s 11 -d -1 -p cbr -e 210 -c 2 -a 0 -i 40 -k AGT 
- -t 8.214495399 -s 11 -d -1 -p cbr -e 210 -c 2 -a 0 -i 40 -k AGT
h -t 8.214495399 -s 11 -d -1 -p cbr -e 210 -c 2 -a 0 -i 40 -k AGT
r -t 8.263153667 -s 18 -d 18 -p cbr -e 230 -c 2 -a 0 -i 34 -k AGT
r -t 8.323153667 -s 18 -d 18 -p cbr -e 230 -c 2 -a 0 -i 28 -k AGT
+ -t 8.374838288 -s 15 -d -1 -p cbr -e 210 -c 2 -a 0 -i 41 -k AGT 
- -t 8.374838288 -s 15 -d -1 -p cbr -e 210 -c 2 -a 0 -i 41 -k AGT
h -t 8.374838288 -s 15 -d -1 -p cbr -e 210 -c 2 -a 0 -i 41 -k AGT
+ -t 8.382495399 -s 11 -d -1 -p cbr -e 210 -c 2 -a 0 -i 42 -k AGT 
- -t 8.382495399 -s 11 -d -1 -p cbr -e 210 -c 2 -a 0 -i 42 -k AGT
h -t 8.382495399 -s 11 -d -1 -p cbr -e 210 -c 2 -a 0 -i 42 -k AGT
r -t 8.383153667 -s 18 -d 18 -p cbr -e 230 -c 2 -a 0 -i 30 -k AGT
r -t 8.443153667 -s 18 -d 18 -p cbr -e 230 -c 2 -a 0 -i 32 -k AGT
r -t 8.503153667 -s 18 -d 18 -p cbr -e 230 -c 2 -a 0 -i 36 -k AGT
+ -t 8.542838288 -s 15 -d -1 -p cbr -e 210 -c 2 -a 0 -i 43 -k AGT 
- -t 8.542838288 -s 15 -d -1 -p cbr -e 210 -c 2 -a 0 -i 43 -k AGT
h -t 8.542838288 -s 15 -d -1 -p cbr -e 210 -c 2 -a 0 -i 43 -k AGT
+ -t 8.550495399 -s 11 -d -1 -p cbr -e 210 -c 2 -a 0 -i 44 -k AGT 
- -t 8.550495399 -s 11 -d -1 -p cbr -e 210 -c 2 -a 0 -i 44 -k AGT
h -t 8.550495399 -s 11 -d -1 -p cbr -e 210 -c 2 -a 0 -i 44 -k AGT
r -t 8.563153667 -s 18 -d 18 -p cbr -e 230 -c 2 -a 0 -i 38 -k AGT
r -t 8.623153667 -s 18 -d 18 -p cbr -e 230 -c 2 -a 0 -i 40 -k AGT
r -t 8.683153667 -s 18 -d 18 -p cbr -e 230 -c 2 -a 0 -i 42 -k AGT
+ -t 8.710838288 -s 15 -d -1 -p cbr -e 210 -c 2 -a 0 -i 45 -k AGT 
- -t 8.710838288 -s 15 -d -1 -p cbr -e 210 -c 2 -a 0 -i 45 -k AGT
h -t 8.710838288 -s 15 -d -1 -p cbr -e 210 -c 2 -a 0 -i 45 -k AGT
+ -t 8.718495399 -s 11 -d -1 -p cbr -e 210 -c 2 -a 0 -i 46 -k AGT 
- -t 8.718495399 -s 11 -d -1 -p cbr -e 210 -c 2 -a 0 -i 46 -k AGT
h -t 8.718495399 -s 11 -d -1 -p cbr -e 210 -c 2 -a 0 -i 46 -k AGT
r -t 8.743153667 -s 18 -d 18 -p cbr -e 230 -c 2 -a 0 -i 44 -k AGT
r -t 8.863153667 -s 18 -d 18 -p cbr -e 230 -c 2 -a 0 -i 46 -k AGT
+ -t 8.878838288 -s 15 -d -1 -p cbr -e 210 -c 2 -a 0 -i 47 -k AGT 
- -t 8.878838288 -s 15 -d -1 -p cbr -e 210 -c 2 -a 0 -i 47 -k AGT
h -t 8.878838288 -s 15 -d -1 -p cbr -e 210 -c 2 -a 0 -i 47 -k AGT
+ -t 8.886495399 -s 11 -d -1 -p cbr -e 210 -c 2 -a 0 -i 48 -k AGT 
- -t 8.886495399 -s 11 -d -1 -p cbr -e 210 -c 2 -a 0 -i 48 -k AGT
h -t 8.886495399 -s 11 -d -1 -p cbr -e 210 -c 2 -a 0 -i 48 -k AGT
r -t 8.929153667 -s 5 -d 5 -p cbr -e 230 -c 2 -a 0 -i 47 -k AGT
r -t 9.043153667 -s 18 -d 18 -p cbr -e 230 -c 2 -a 0 -i 48 -k AGT
+ -t 9.046838288 -s 15 -d -1 -p cbr -e 210 -c 2 -a 0 -i 49 -k AGT 
- -t 9.046838288 -s 15 -d -1 -p cbr -e 210 -c 2 -a 0 -i 49 -k AGT
h -t 9.046838288 -s 15 -d -1 -p cbr -e 210 -c 2 -a 0 -i 49 -k AGT
+ -t 9.054495399 -s 11 -d -1 -p cbr -e 210 -c 2 -a 0 -i 50 -k AGT 
- -t 9.054495399 -s 11 -d -1 -p cbr -e 210 -c 2 -a 0 -i 50 -k AGT
h -t 9.054495399 -s 11 -d -1 -p cbr -e 210 -c 2 -a 0 -i 50 -k AGT
r -t 9.163153667 -s 18 -d 18 -p cbr -e 230 -c 2 -a 0 -i 50 -k AGT
+ -t 9.214838288 -s 15 -d -1 -p cbr -e 210 -c 2 -a 0 -i 51 -k AGT 
- -t 9.214838288 -s 15 -d -1 -p cbr -e 210 -c 2 -a 0 -i 51 -k AGT
h -t 9.214838288 -s 15 -d -1 -p cbr -e 210 -c 2 -a 0 -i 51 -k AGT
+ -t 9.222495399 -s 11 -d -1 -p cbr -e 210 -c 2 -a 0 -i 52 -k AGT 
- -t 9.222495399 -s 11 -d -1 -p cbr -e 210 -c 2 -a 0 -i 52 -k AGT
h -t 9.222495399 -s 11 -d -1 -p cbr -e 210 -c 2 -a 0 -i 52 -k AGT
r -t 9.343153667 -s 18 -d 18 -p cbr -e 230 -c 2 -a 0 -i 52 -k AGT
+ -t 9.382838288 -s 15 -d -1 -p cbr -e 210 -c 2 -a 0 -i 53 -k AGT 
- -t 9.382838288 -s 15 -d -1 -p cbr -e 210 -c 2 -a 0 -i 53 -k AGT
h -t 9.382838288 -s 15 -d -1 -p cbr -e 210 -c 2 -a 0 -i 53 -k AGT
+ -t 9.390495399 -s 11 -d -1 -p cbr -e 210 -c 2 -a 0 -i 54 -k AGT 
- -t 9.390495399 -s 11 -d -1 -p cbr -e 210 -c 2 -a 0 -i 54 -k AGT
h -t 9.390495399 -s 11 -d -1 -p cbr -e 210 -c 2 -a 0 -i 54 -k AGT
r -t 9.523153667 -s 18 -d 18 -p cbr -e 230 -c 2 -a 0 -i 54 -k AGT
+ -t 9.550838288 -s 15 -d -1 -p cbr -e 210 -c 2 -a 0 -i 55 -k AGT 
- -t 9.550838288 -s 15 -d -1 -p cbr -e 210 -c 2 -a 0 -i 55 -k AGT
h -t 9.550838288 -s 15 -d -1 -p cbr -e 210 -c 2 -a 0 -i 55 -k AGT
+ -t 9.558495399 -s 11 -d -1 -p cbr -e 210 -c 2 -a 0 -i 56 -k AGT 
- -t 9.558495399 -s 11 -d -1 -p cbr -e 210 -c 2 -a 0 -i 56 -k AGT
h -t 9.558495399 -s 11 -d -1 -p cbr -e 210 -c 2 -a 0 -i 56 -k AGT
r -t 9.703153667 -s 18 -d 18 -p cbr -e 230 -c 2 -a 0 -i 56 -k AGT
+ -t 9.718838288 -s 15 -d -1 -p cbr -e 210 -c 2 -a 0 -i 57 -k AGT 
- -t 9.718838288 -s 15 -d -1 -p cbr -e 210 -c 2 -a 0 -i 57 -k AGT
h -t 9.718838288 -s 15 -d -1 -p cbr -e 210 -c 2 -a 0 -i 57 -k AGT
+ -t 9.726495399 -s 11 -d -1 -p cbr -e 210 -c 2 -a 0 -i 58 -k AGT 
- -t 9.726495399 -s 11 -d -1 -p cbr -e 210 -c 2 -a 0 -i 58 -k AGT
h -t 9.726495399 -s 11 -d -1 -p cbr -e 210 -c 2 -a 0 -i 58 -k AGT
r -t 9.769153667 -s 5 -d 5 -p cbr -e 230 -c 2 -a 0 -i 57 -k AGT
r -t 9.883153667 -s 18 -d 18 -p cbr -e 230 -c 2 -a 0 -i 58 -k AGT
+ -t 9.886838288 -s 15 -d -1 -p cbr -e 210 -c 2 -a 0 -i 59 -k AGT 
- -t 9.886838288 -s 15 -d -1 -p cbr -e 210 -c 2 -a 0 -i 59 -k AGT
h -t 9.886838288 -s 15 -d -1 -p cbr -e 210 -c 2 -a 0 -i 59 -k AGT
+ -t 9.894495399 -s 11 -d -1 -p cbr -e 210 -c 2 -a 0 -i 60 -k AGT 
- -t 9.894495399 -s 11 -d -1 -p cbr -e 210 -c 2 -a 0 -i 60 -k AGT
h -t 9.894495399 -s 11 -d -1 -p cbr -e 210 -c 2 -a 0 -i 60 -k AGT
r -t 10.003153667 -s 18 -d 18 -p cbr -e 230 -c 2 -a 0 -i 60 -k AGT
+ -t 10.054838288 -s 15 -d -1 -p cbr -e 210 -c 2 -a 0 -i 61 -k AGT 
- -t 10.054838288 -s 15 -d -1 -p cbr -e 210 -c 2 -a 0 -i 61 -k AGT
h -t 10.054838288 -s 15 -d -1 -p cbr -e 210 -c 2 -a 0 -i 61 -k AGT
+ -t 10.062495399 -s 11 -d -1 -p cbr -e 210 -c 2 -a 0 -i 62 -k AGT 
- -t 10.062495399 -s 11 -d -1 -p cbr -e 210 -c 2 -a 0 -i 62 -k AGT
h -t 10.062495399 -s 11 -d -1 -p cbr -e 210 -c 2 -a 0 -i 62 -k AGT
r -t 10.183153667 -s 18 -d 18 -p cbr -e 230 -c 2 -a 0 -i 62 -k AGT
+ -t 10.222838288 -s 15 -d -1 -p cbr -e 210 -c 2 -a 0 -i 63 -k AGT 
- -t 10.222838288 -s 15 -d -1 -p cbr -e 210 -c 2 -a 0 -i 63 -k AGT
h -t 10.222838288 -s 15 -d -1 -p cbr -e 210 -c 2 -a 0 -i 63 -k AGT
+ -t 10.230495399 -s 11 -d -1 -p cbr -e 210 -c 2 -a 0 -i 64 -k AGT 
- -t 10.230495399 -s 11 -d -1 -p cbr -e 210 -c 2 -a 0 -i 64 -k AGT
h -t 10.230495399 -s 11 -d -1 -p cbr -e 210 -c 2 -a 0 -i 64 -k AGT
r -t 10.363153667 -s 18 -d 18 -p cbr -e 230 -c 2 -a 0 -i 64 -k AGT
+ -t 10.390838288 -s 15 -d -1 -p cbr -e 210 -c 2 -a 0 -i 65 -k AGT 
- -t 10.390838288 -s 15 -d -1 -p cbr -e 210 -c 2 -a 0 -i 65 -k AGT
h -t 10.390838288 -s 15 -d -1 -p cbr -e 210 -c 2 -a 0 -i 65 -k AGT
+ -t 10.398495399 -s 11 -d -1 -p cbr -e 210 -c 2 -a 0 -i 66 -k AGT 
- -t 10.398495399 -s 11 -d -1 -p cbr -e 210 -c 2 -a 0 -i 66 -k AGT
h -t 10.398495399 -s 11 -d -1 -p cbr -e 210 -c 2 -a 0 -i 66 -k AGT
r -t 10.543153667 -s 18 -d 18 -p cbr -e 230 -c 2 -a 0 -i 66 -k AGT
+ -t 10.558838288 -s 15 -d -1 -p cbr -e 210 -c 2 -a 0 -i 67 -k AGT 
- -t 10.558838288 -s 15 -d -1 -p cbr -e 210 -c 2 -a 0 -i 67 -k AGT
h -t 10.558838288 -s 15 -d -1 -p cbr -e 210 -c 2 -a 0 -i 67 -k AGT
+ -t 10.566495399 -s 11 -d -1 -p cbr -e 210 -c 2 -a 0 -i 68 -k AGT 
- -t 10.566495399 -s 11 -d -1 -p cbr -e 210 -c 2 -a 0 -i 68 -k AGT
h -t 10.566495399 -s 11 -d -1 -p cbr -e 210 -c 2 -a 0 -i 68 -k AGT
r -t 10.609153667 -s 5 -d 5 -p cbr -e 230 -c 2 -a 0 -i 67 -k AGT
r -t 10.723153667 -s 18 -d 18 -p cbr -e 230 -c 2 -a 0 -i 68 -k AGT
+ -t 10.726838288 -s 15 -d -1 -p cbr -e 210 -c 2 -a 0 -i 69 -k AGT 
- -t 10.726838288 -s 15 -d -1 -p cbr -e 210 -c 2 -a 0 -i 69 -k AGT
h -t 10.726838288 -s 15 -d -1 -p cbr -e 210 -c 2 -a 0 -i 69 -k AGT
+ -t 10.734495399 -s 11 -d -1 -p cbr -e 210 -c 2 -a 0 -i 70 -k AGT 
- -t 10.734495399 -s 11 -d -1 -p cbr -e 210 -c 2 -a 0 -i 70 -k AGT
h -t 10.734495399 -s 11 -d -1 -p cbr -e 210 -c 2 -a 0 -i 70 -k AGT
r -t 10.843153667 -s 18 -d 18 -p cbr -e 230 -c 2 -a 0 -i 70 -k AGT
r -t 10.849153667 -s 5 -d 5 -p cbr -e 230 -c 2 -a 0 -i 69 -k AGT
+ -t 10.894838288 -s 15 -d -1 -p cbr -e 210 -c 2 -a 0 -i 71 -k AGT 
- -t 10.894838288 -s 15 -d -1 -p cbr -e 210 -c 2 -a 0 -i 71 -k AGT
h -t 10.894838288 -s 15 -d -1 -p cbr -e 210 -c 2 -a 0 -i 71 -k AGT
+ -t 10.902495399 -s 11 -d -1 -p cbr -e 210 -c 2 -a 0 -i 72 -k AGT 
- -t 10.902495399 -s 11 -d -1 -p cbr -e 210 -c 2 -a 0 -i 72 -k AGT
h -t 10.902495399 -s 11 -d -1 -p cbr -e 210 -c 2 -a 0 -i 72 -k AGT
r -t 11.023153667 -s 18 -d 18 -p cbr -e 230 -c 2 -a 0 -i 72 -k AGT
+ -t 11.062838288 -s 15 -d -1 -p cbr -e 210 -c 2 -a 0 -i 73 -k AGT 
- -t 11.062838288 -s 15 -d -1 -p cbr -e 210 -c 2 -a 0 -i 73 -k AGT
h -t 11.062838288 -s 15 -d -1 -p cbr -e 210 -c 2 -a 0 -i 73 -k AGT
+ -t 11.070495399 -s 11 -d -1 -p cbr -e 210 -c 2 -a 0 -i 74 -k AGT 
- -t 11.070495399 -s 11 -d -1 -p cbr -e 210 -c 2 -a 0 -i 74 -k AGT
h -t 11.070495399 -s 11 -d -1 -p cbr -e 210 -c 2 -a 0 -i 74 -k AGT
r -t 11.203153667 -s 18 -d 18 -p cbr -e 230 -c 2 -a 0 -i 74 -k AGT
+ -t 11.230838288 -s 15 -d -1 -p cbr -e 210 -c 2 -a 0 -i 75 -k AGT 
- -t 11.230838288 -s 15 -d -1 -p cbr -e 210 -c 2 -a 0 -i 75 -k AGT
h -t 11.230838288 -s 15 -d -1 -p cbr -e 210 -c 2 -a 0 -i 75 -k AGT
+ -t 11.238495399 -s 11 -d -1 -p cbr -e 210 -c 2 -a 0 -i 76 -k AGT 
- -t 11.238495399 -s 11 -d -1 -p cbr -e 210 -c 2 -a 0 -i 76 -k AGT
h -t 11.238495399 -s 11 -d -1 -p cbr -e 210 -c 2 -a 0 -i 76 -k AGT
r -t 11.383153667 -s 18 -d 18 -p cbr -e 230 -c 2 -a 0 -i 76 -k AGT
+ -t 11.398838288 -s 15 -d -1 -p cbr -e 210 -c 2 -a 0 -i 77 -k AGT 
- -t 11.398838288 -s 15 -d -1 -p cbr -e 210 -c 2 -a 0 -i 77 -k AGT
h -t 11.398838288 -s 15 -d -1 -p cbr -e 210 -c 2 -a 0 -i 77 -k AGT
+ -t 11.406495399 -s 11 -d -1 -p cbr -e 210 -c 2 -a 0 -i 78 -k AGT 
- -t 11.406495399 -s 11 -d -1 -p cbr -e 210 -c 2 -a 0 -i 78 -k AGT
h -t 11.406495399 -s 11 -d -1 -p cbr -e 210 -c 2 -a 0 -i 78 -k AGT
r -t 11.449153667 -s 5 -d 5 -p cbr -e 230 -c 2 -a 0 -i 77 -k AGT
r -t 11.563153667 -s 18 -d 18 -p cbr -e 230 -c 2 -a 0 -i 78 -k AGT
+ -t 11.566838288 -s 15 -d -1 -p cbr -e 210 -c 2 -a 0 -i 79 -k AGT 
- -t 11.566838288 -s 15 -d -1 -p cbr -e 210 -c 2 -a 0 -i 79 -k AGT
h -t 11.566838288 -s 15 -d -1 -p cbr -e 210 -c 2 -a 0 -i 79 -k AGT
+ -t 11.574495399 -s 11 -d -1 -p cbr -e 210 -c 2 -a 0 -i 80 -k AGT 
- -t 11.574495399 -s 11 -d -1 -p cbr -e 210 -c 2 -a 0 -i 80 -k AGT
h -t 11.574495399 -s 11 -d -1 -p cbr -e 210 -c 2 -a 0 -i 80 -k AGT
r -t 11.683153667 -s 18 -d 18 -p cbr -e 230 -c 2 -a 0 -i 80 -k AGT
+ -t 11.734838288 -s 15 -d -1 -p cbr -e 210 -c 2 -a 0 -i 81 -k AGT 
- -t 11.734838288 -s 15 -d -1 -p cbr -e 210 -c 2 -a 0 -i 81 -k AGT
h -t 11.734838288 -s 15 -d -1 -p cbr -e 210 -c 2 -a 0 -i 81 -k AGT
+ -t 11.742495399 -s 11 -d -1 -p cbr -e 210 -c 2 -a 0 -i 82 -k AGT 
- -t 11.742495399 -s 11 -d -1 -p cbr -e 210 -c 2 -a 0 -i 82 -k AGT
h -t 11.742495399 -s 11 -d -1 -p cbr -e 210 -c 2 -a 0 -i 82 -k AGT
r -t 11.863153667 -s 18 -d 18 -p cbr -e 230 -c 2 -a 0 -i 82 -k AGT
+ -t 11.902838288 -s 15 -d -1 -p cbr -e 210 -c 2 -a 0 -i 83 -k AGT 
- -t 11.902838288 -s 15 -d -1 -p cbr -e 210 -c 2 -a 0 -i 83 -k AGT
h -t 11.902838288 -s 15 -d -1 -p cbr -e 210 -c 2 -a 0 -i 83 -k AGT
+ -t 11.910495399 -s 11 -d -1 -p cbr -e 210 -c 2 -a 0 -i 84 -k AGT 
- -t 11.910495399 -s 11 -d -1 -p cbr -e 210 -c 2 -a 0 -i 84 -k AGT
h -t 11.910495399 -s 11 -d -1 -p cbr -e 210 -c 2 -a 0 -i 84 -k AGT
r -t 12.043153667 -s 18 -d 18 -p cbr -e 230 -c 2 -a 0 -i 84 -k AGT
+ -t 12.070838288 -s 15 -d -1 -p cbr -e 210 -c 2 -a 0 -i 85 -k AGT 
- -t 12.070838288 -s 15 -d -1 -p cbr -e 210 -c 2 -a 0 -i 85 -k AGT
h -t 12.070838288 -s 15 -d -1 -p cbr -e 210 -c 2 -a 0 -i 85 -k AGT
+ -t 12.078495399 -s 11 -d -1 -p cbr -e 210 -c 2 -a 0 -i 86 -k AGT 
- -t 12.078495399 -s 11 -d -1 -p cbr -e 210 -c 2 -a 0 -i 86 -k AGT
h -t 12.078495399 -s 11 -d -1 -p cbr -e 210 -c 2 -a 0 -i 86 -k AGT
r -t 12.223153667 -s 18 -d 18 -p cbr -e 230 -c 2 -a 0 -i 86 -k AGT
+ -t 12.238838288 -s 15 -d -1 -p cbr -e 210 -c 2 -a 0 -i 87 -k AGT 
- -t 12.238838288 -s 15 -d -1 -p cbr -e 210 -c 2 -a 0 -i 87 -k AGT
h -t 12.238838288 -s 15 -d -1 -p cbr -e 210 -c 2 -a 0 -i 87 -k AGT
+ -t 12.246495399 -s 11 -d -1 -p cbr -e 210 -c 2 -a 0 -i 88 -k AGT 
- -t 12.246495399 -s 11 -d -1 -p cbr -e 210 -c 2 -a 0 -i 88 -k AGT
h -t 12.246495399 -s 11 -d -1 -p cbr -e 210 -c 2 -a 0 -i 88 -k AGT
r -t 12.289153667 -s 5 -d 5 -p cbr -e 230 -c 2 -a 0 -i 87 -k AGT
r -t 12.403153667 -s 18 -d 18 -p cbr -e 230 -c 2 -a 0 -i 88 -k AGT
+ -t 12.406838288 -s 15 -d -1 -p cbr -e 210 -c 2 -a 0 -i 89 -k AGT 
- -t 12.406838288 -s 15 -d -1 -p cbr -e 210 -c 2 -a 0 -i 89 -k AGT
h -t 12.406838288 -s 15 -d -1 -p cbr -e 210 -c 2 -a 0 -i 89 -k AGT
+ -t 12.414495399 -s 11 -d -1 -p cbr -e 210 -c 2 -a 0 -i 90 -k AGT 
- -t 12.414495399 -s 11 -d -1 -p cbr -e 210 -c 2 -a 0 -i 90 -k AGT
h -t 12.414495399 -s 11 -d -1 -p cbr -e 210 -c 2 -a 0 -i 90 -k AGT
r -t 12.523153667 -s 18 -d 18 -p cbr -e 230 -c 2 -a 0 -i 90 -k AGT
+ -t 12.574838288 -s 15 -d -1 -p cbr -e 210 -c 2 -a 0 -i 91 -k AGT 
- -t 12.574838288 -s 15 -d -1 -p cbr -e 210 -c 2 -a 0 -i 91 -k AGT
h -t 12.574838288 -s 15 -d -1 -p cbr -e 210 -c 2 -a 0 -i 91 -k AGT
+ -t 12.582495399 -s 11 -d -1 -p cbr -e 210 -c 2 -a 0 -i 92 -k AGT 
- -t 12.582495399 -s 11 -d -1 -p cbr -e 210 -c 2 -a 0 -i 92 -k AGT
h -t 12.582495399 -s 11 -d -1 -p cbr -e 210 -c 2 -a 0 -i 92 -k AGT
r -t 12.703153667 -s 18 -d 18 -p cbr -e 230 -c 2 -a 0 -i 92 -k AGT
+ -t 12.742838288 -s 15 -d -1 -p cbr -e 210 -c 2 -a 0 -i 93 -k AGT 
- -t 12.742838288 -s 15 -d -1 -p cbr -e 210 -c 2 -a 0 -i 93 -k AGT
h -t 12.742838288 -s 15 -d -1 -p cbr -e 210 -c 2 -a 0 -i 93 -k AGT
+ -t 12.750495399 -s 11 -d -1 -p cbr -e 210 -c 2 -a 0 -i 94 -k AGT 
- -t 12.750495399 -s 11 -d -1 -p cbr -e 210 -c 2 -a 0 -i 94 -k AGT
h -t 12.750495399 -s 11 -d -1 -p cbr -e 210 -c 2 -a 0 -i 94 -k AGT
r -t 12.883153667 -s 18 -d 18 -p cbr -e 230 -c 2 -a 0 -i 94 -k AGT
+ -t 12.910838288 -s 15 -d -1 -p cbr -e 210 -c 2 -a 0 -i 95 -k AGT 
- -t 12.910838288 -s 15 -d -1 -p cbr -e 210 -c 2 -a 0 -i 95 -k AGT
h -t 12.910838288 -s 15 -d -1 -p cbr -e 210 -c 2 -a 0 -i 95 -k AGT
+ -t 12.918495399 -s 11 -d -1 -p cbr -e 210 -c 2 -a 0 -i 96 -k AGT 
- -t 12.918495399 -s 11 -d -1 -p cbr -e 210 -c 2 -a 0 -i 96 -k AGT
h -t 12.918495399 -s 11 -d -1 -p cbr -e 210 -c 2 -a 0 -i 96 -k AGT
r -t 13.063153667 -s 18 -d 18 -p cbr -e 230 -c 2 -a 0 -i 96 -k AGT
+ -t 13.078838288 -s 15 -d -1 -p cbr -e 210 -c 2 -a 0 -i 97 -k AGT 
- -t 13.078838288 -s 15 -d -1 -p cbr -e 210 -c 2 -a 0 -i 97 -k AGT
h -t 13.078838288 -s 15 -d -1 -p cbr -e 210 -c 2 -a 0 -i 97 -k AGT
+ -t 13.086495399 -s 11 -d -1 -p cbr -e 210 -c 2 -a 0 -i 98 -k AGT 
- -t 13.086495399 -s 11 -d -1 -p cbr -e 210 -c 2 -a 0 -i 98 -k AGT
h -t 13.086495399 -s 11 -d -1 -p cbr -e 210 -c 2 -a 0 -i 98 -k AGT
r -t 13.129153667 -s 5 -d 5 -p cbr -e 230 -c 2 -a 0 -i 97 -k AGT
r -t 13.243153667 -s 18 -d 18 -p cbr -e 230 -c 2 -a 0 -i 98 -k AGT
+ -t 13.246838288 -s 15 -d -1 -p cbr -e 210 -c 2 -a 0 -i 99 -k AGT 
- -t 13.246838288 -s 15 -d -1 -p cbr -e 210 -c 2 -a 0 -i 99 -k AGT
h -t 13.246838288 -s 15 -d -1 -p cbr -e 210 -c 2 -a 0 -i 99 -k AGT
+ -t 13.254495399 -s 11 -d -1 -p cbr -e 210 -c 2 -a 0 -i 100 -k AGT 
- -t 13.254495399 -s 11 -d -1 -p cbr -e 210 -c 2 -a 0 -i 100 -k AGT
h -t 13.254495399 -s 11 -d -1 -p cbr -e 210 -c 2 -a 0 -i 100 -k AGT
r -t 13.363153667 -s 18 -d 18 -p cbr -e 230 -c 2 -a 0 -i 100 -k AGT
+ -t 13.414838288 -s 15 -d -1 -p cbr -e 210 -c 2 -a 0 -i 101 -k AGT 
- -t 13.414838288 -s 15 -d -1 -p cbr -e 210 -c 2 -a 0 -i 101 -k AGT
h -t 13.414838288 -s 15 -d -1 -p cbr -e 210 -c 2 -a 0 -i 101 -k AGT
+ -t 13.422495399 -s 11 -d -1 -p cbr -e 210 -c 2 -a 0 -i 102 -k AGT 
- -t 13.422495399 -s 11 -d -1 -p cbr -e 210 -c 2 -a 0 -i 102 -k AGT
h -t 13.422495399 -s 11 -d -1 -p cbr -e 210 -c 2 -a 0 -i 102 -k AGT
r -t 13.543153667 -s 18 -d 18 -p cbr -e 230 -c 2 -a 0 -i 102 -k AGT
+ -t 13.582838288 -s 15 -d -1 -p cbr -e 210 -c 2 -a 0 -i 103 -k AGT 
- -t 13.582838288 -s 15 -d -1 -p cbr -e 210 -c 2 -a 0 -i 103 -k AGT
h -t 13.582838288 -s 15 -d -1 -p cbr -e 210 -c 2 -a 0 -i 103 -k AGT
+ -t 13.590495399 -s 11 -d -1 -p cbr -e 210 -c 2 -a 0 -i 104 -k AGT 
- -t 13.590495399 -s 11 -d -1 -p cbr -e 210 -c 2 -a 0 -i 104 -k AGT
h -t 13.590495399 -s 11 -d -1 -p cbr -e 210 -c 2 -a 0 -i 104 -k AGT
r -t 13.723153667 -s 18 -d 18 -p cbr -e 230 -c 2 -a 0 -i 104 -k AGT
+ -t 13.750838288 -s 15 -d -1 -p cbr -e 210 -c 2 -a 0 -i 105 -k AGT 
- -t 13.750838288 -s 15 -d -1 -p cbr -e 210 -c 2 -a 0 -i 105 -k AGT
h -t 13.750838288 -s 15 -d -1 -p cbr -e 210 -c 2 -a 0 -i 105 -k AGT
+ -t 13.758495399 -s 11 -d -1 -p cbr -e 210 -c 2 -a 0 -i 106 -k AGT 
- -t 13.758495399 -s 11 -d -1 -p cbr -e 210 -c 2 -a 0 -i 106 -k AGT
h -t 13.758495399 -s 11 -d -1 -p cbr -e 210 -c 2 -a 0 -i 106 -k AGT
r -t 13.903153667 -s 18 -d 18 -p cbr -e 230 -c 2 -a 0 -i 106 -k AGT
+ -t 13.918838288 -s 15 -d -1 -p cbr -e 210 -c 2 -a 0 -i 107 -k AGT 
- -t 13.918838288 -s 15 -d -1 -p cbr -e 210 -c 2 -a 0 -i 107 -k AGT
h -t 13.918838288 -s 15 -d -1 -p cbr -e 210 -c 2 -a 0 -i 107 -k AGT
+ -t 13.926495399 -s 11 -d -1 -p cbr -e 210 -c 2 -a 0 -i 108 -k AGT 
- -t 13.926495399 -s 11 -d -1 -p cbr -e 210 -c 2 -a 0 -i 108 -k AGT
h -t 13.926495399 -s 11 -d -1 -p cbr -e 210 -c 2 -a 0 -i 108 -k AGT
r -t 13.969153667 -s 5 -d 5 -p cbr -e 230 -c 2 -a 0 -i 107 -k AGT
r -t 14.083153667 -s 18 -d 18 -p cbr -e 230 -c 2 -a 0 -i 108 -k AGT
+ -t 14.086838288 -s 15 -d -1 -p cbr -e 210 -c 2 -a 0 -i 109 -k AGT 
- -t 14.086838288 -s 15 -d -1 -p cbr -e 210 -c 2 -a 0 -i 109 -k AGT
h -t 14.086838288 -s 15 -d -1 -p cbr -e 210 -c 2 -a 0 -i 109 -k AGT
+ -t 14.094495399 -s 11 -d -1 -p cbr -e 210 -c 2 -a 0 -i 110 -k AGT 
- -t 14.094495399 -s 11 -d -1 -p cbr -e 210 -c 2 -a 0 -i 110 -k AGT
h -t 14.094495399 -s 11 -d -1 -p cbr -e 210 -c 2 -a 0 -i 110 -k AGT
r -t 14.203153667 -s 18 -d 18 -p cbr -e 230 -c 2 -a 0 -i 110 -k AGT
+ -t 14.254838288 -s 15 -d -1 -p cbr -e 210 -c 2 -a 0 -i 111 -k AGT 
- -t 14.254838288 -s 15 -d -1 -p cbr -e 210 -c 2 -a 0 -i 111 -k AGT
h -t 14.254838288 -s 15 -d -1 -p cbr -e 210 -c 2 -a 0 -i 111 -k AGT
+ -t 14.262495399 -s 11 -d -1 -p cbr -e 210 -c 2 -a 0 -i 112 -k AGT 
- -t 14.262495399 -s 11 -d -1 -p cbr -e 210 -c 2 -a 0 -i 112 -k AGT
h -t 14.262495399 -s 11 -d -1 -p cbr -e 210 -c 2 -a 0 -i 112 -k AGT
r -t 14.383153667 -s 18 -d 18 -p cbr -e 230 -c 2 -a 0 -i 112 -k AGT
+ -t 14.422838288 -s 15 -d -1 -p cbr -e 210 -c 2 -a 0 -i 113 -k AGT 
- -t 14.422838288 -s 15 -d -1 -p cbr -e 210 -c 2 -a 0 -i 113 -k AGT
h -t 14.422838288 -s 15 -d -1 -p cbr -e 210 -c 2 -a 0 -i 113 -k AGT
+ -t 14.430495399 -s 11 -d -1 -p cbr -e 210 -c 2 -a 0 -i 114 -k AGT 
- -t 14.430495399 -s 11 -d -1 -p cbr -e 210 -c 2 -a 0 -i 114 -k AGT
h -t 14.430495399 -s 11 -d -1 -p cbr -e 210 -c 2 -a 0 -i 114 -k AGT