n -t * -s 0  -x 50 -y 50 -Z 0 -z 10  -v circle -c black
n -t * -s 1  -x 50 -y 250 -Z 0 -z 10  -v circle -c black
n -t * -s 2  -x 50 -y 450 -Z 0 -z 10  -v circle -c black
n -t * -s 3  -x 50 -y 650 -Z 0 -z 10  -v circle -c black
n -t * -s 4  -x 50 -y 850 -Z 0 -z 10  -v circle -c black
n -t * -s 5  -x 250 -y 50 -Z 0 -z 10  -v circle -c black
n -t * -s 6  -x 250 -y 250 -Z 0 -z 10  -v circle -c black
n -t * -s 7  -x 250 -y 450 -Z 0 -z 10  -v circle -c black
n -t * -s 8  -x 250 -y 650 -Z 0 -z 10  -v circle -c black
n -t * -s 9  -x 250 -y 850 -Z 0 -z 10  -v circle -c black
n -t * -s 10  -x 450 -y 50 -Z 0 -z 10  -v circle -c black
n -t * -s 11  -x 450 -y 250 -Z 0 -z 10  -v circle -c black
n -t * -s 12  -x 450 -y 450 -Z 0 -z 10  -v circle -c black
n -t * -s 13  -x 450 -y 650 -Z 0 -z 10  -v circle -c black
n -t * -s 14  -x 450 -y 850 -Z 0 -z 10  -v circle -c black
n -t * -s 15  -x 650 -y 50 -Z 0 -z 10  -v circle -c black
n -t * -s 16  -x 650 -y 250 -Z 0 -z 10  -v circle -c black
n -t * -s 17  -x 650 -y 450 -Z 0 -z 10  -v circle -c black
n -t * -s 18  -x 650 -y 650 -Z 0 -z 10  -v circle -c black
n -t * -s 19  -x 650 -y 850 -Z 0 -z 10  -v circle -c black
n -t * -s 20  -x 850 -y 50 -Z 0 -z 10  -v circle -c black
n -t * -s 21  -x 850 -y 250 -Z 0 -z 10  -v circle -c black
n -t * -s 22  -x 850 -y 450 -Z 0 -z 10  -v circle -c black
n -t * -s 23  -x 850 -y 650 -Z 0 -z 10  -v circle -c black
n -t * -s 24  -x 850 -y 850 -Z 0 -z 10  -v circle -c black
V -t * -v 1.0a5 -a 0
W -t * -x 1000 -y 1000
A -t * -n 1 -p 0 -o 0x7fffffff -c 30 -a 1
A -t * -h 1 -m 1073741823 -s 0
+ -t 47.674186364 -s 23 -d -1 -p cbr -e 210 -c 2 -a 0 -i 0 -k AGT 
- -t 47.674186364 -s 23 -d -1 -p cbr -e 210 -c 2 -a 0 -i 0 -k AGT
h -t 47.674186364 -s 23 -d -1 -p cbr -e 210 -c 2 -a 0 -i 0 -k AGT
+ -t 47.707786364 -s 23 -d -1 -p cbr -e 210 -c 2 -a 0 -i 1 -k AGT 
- -t 47.707786364 -s 23 -d -1 -p cbr -e 210 -c 2 -a 0 -i 1 -k AGT
h -t 47.707786364 -s 23 -d -1 -p cbr -e 210 -c 2 -a 0 -i 1 -k AGT
+ -t 47.741386364 -s 23 -d -1 -p cbr -e 210 -c 2 -a 0 -i 2 -k AGT 
- -t 47.741386364 -s 23 -d -1 -p cbr -e 210 -c 2 -a 0 -i 2 -k AGT
h -t 47.741386364 -s 23 -d -1 -p cbr -e 210 -c 2 -a 0 -i 2 -k AGT
+ -t 47.774986364 -s 23 -d -1 -p cbr -e 210 -c 2 -a 0 -i 3 -k AGT 
- -t 47.774986364 -s 23 -d -1 -p cbr -e 210 -c 2 -a 0 -i 3 -k AGT
h -t 47.774986364 -s 23 -d -1 -p cbr -e 210 -c 2 -a 0 -i 3 -k AGT
+ -t 47.808586364 -s 23 -d -1 -p cbr -e 210 -c 2 -a 0 -i 4 -k AGT 
- -t 47.808586364 -s 23 -d -1 -p cbr -e 210 -c 2 -a 0 -i 4 -k AGT
h -t 47.808586364 -s 23 -d -1 -p cbr -e 210 -c 2 -a 0 -i 4 -k AGT
+ -t 47.842186364 -s 23 -d -1 -p cbr -e 210 -c 2 -a 0 -i 5 -k AGT 
- -t 47.842186364 -s 23 -d -1 -p cbr -e 210 -c 2 -a 0 -i 5 -k AGT
h -t 47.842186364 -s 23 -d -1 -p cbr -e 210 -c 2 -a 0 -i 5 -k AGT
+ -t 47.875786364 -s 23 -d -1 -p cbr -e 210 -c 2 -a 0 -i 6 -k AGT 
- -t 47.875786364 -s 23 -d -1 -p cbr -e 210 -c 2 -a 0 -i 6 -k AGT
h -t 47.875786364 -s 23 -d -1 -p cbr -e 210 -c 2 -a 0 -i 6 -k AGT
+ -t 47.909386364 -s 23 -d -1 -p cbr -e 210 -c 2 -a 0 -i 7 -k AGT 
- -t 47.909386364 -s 23 -d -1 -p cbr -e 210 -c 2 -a 0 -i 7 -k AGT
h -t 47.909386364 -s 23 -d -1 -p cbr -e 210 -c 2 -a 0 -i 7 -k AGT
+ -t 47.942986364 -s 23 -d -1 -p cbr -e 210 -c 2 -a 0 -i 8 -k AGT 
- -t 47.942986364 -s 23 -d -1 -p cbr -e 210 -c 2 -a 0 -i 8 -k AGT
h -t 47.942986364 -s 23 -d -1 -p cbr -e 210 -c 2 -a 0 -i 8 -k AGT
+ -t 47.976586364 -s 23 -d -1 -p cbr -e 210 -c 2 -a 0 -i 9 -k AGT 
- -t 47.976586364 -s 23 -d -1 -p cbr -e 210 -c 2 -a 0 -i 9 -k AGT
h -t 47.976586364 -s 23 -d -1 -p cbr -e 210 -c 2 -a 0 -i 9 -k AGT
+ -t 48.010186364 -s 23 -d -1 -p cbr -e 210 -c 2 -a 0 -i 10 -k AGT 
- -t 48.010186364 -s 23 -d -1 -p cbr -e 210 -c 2 -a 0 -i 10 -k AGT
h -t 48.010186364 -s 23 -d -1 -p cbr -e 210 -c 2 -a 0 -i 10 -k AGT
+ -t 48.043786364 -s 23 -d -1 -p cbr -e 210 -c 2 -a 0 -i 11 -k AGT 
- -t 48.043786364 -s 23 -d -1 -p cbr -e 210 -c 2 -a 0 -i 11 -k AGT
h -t 48.043786364 -s 23 -d -1 -p cbr -e 210 -c 2 -a 0 -i 11 -k AGT
r -t 48.061153667 -s 18 -d 18 -p cbr -e 230 -c 2 -a 0 -i 0 -k AGT
+ -t 48.077386364 -s 23 -d -1 -p cbr -e 210 -c 2 -a 0 -i 12 -k AGT 
- -t 48.077386364 -s 23 -d -1 -p cbr -e 210 -c 2 -a 0 -i 12 -k AGT
h -t 48.077386364 -s 23 -d -1 -p cbr -e 210 -c 2 -a 0 -i 12 -k AGT
+ -t 48.110986364 -s 23 -d -1 -p cbr -e 210 -c 2 -a 0 -i 13 -k AGT 
- -t 48.110986364 -s 23 -d -1 -p cbr -e 210 -c 2 -a 0 -i 13 -k AGT
h -t 48.110986364 -s 23 -d -1 -p cbr -e 210 -c 2 -a 0 -i 13 -k AGT
r -t 48.121153667 -s 18 -d 18 -p cbr -e 230 -c 2 -a 0 -i 1 -k AGT
+ -t 48.144586364 -s 23 -d -1 -p cbr -e 210 -c 2 -a 0 -i 14 -k AGT 
- -t 48.144586364 -s 23 -d -1 -p cbr -e 210 -c 2 -a 0 -i 14 -k AGT
h -t 48.144586364 -s 23 -d -1 -p cbr -e 210 -c 2 -a 0 -i 14 -k AGT
+ -t 48.178186364 -s 23 -d -1 -p cbr -e 210 -c 2 -a 0 -i 15 -k AGT 
- -t 48.178186364 -s 23 -d -1 -p cbr -e 210 -c 2 -a 0 -i 15 -k AGT
h -t 48.178186364 -s 23 -d -1 -p cbr -e 210 -c 2 -a 0 -i 15 -k AGT
r -t 48.181153667 -s 18 -d 18 -p cbr -e 230 -c 2 -a 0 -i 2 -k AGT
+ -t 48.211786364 -s 23 -d -1 -p cbr -e 210 -c 2 -a 0 -i 16 -k AGT 
- -t 48.211786364 -s 23 -d -1 -p cbr -e 210 -c 2 -a 0 -i 16 -k AGT
h -t 48.211786364 -s 23 -d -1 -p cbr -e 210 -c 2 -a 0 -i 16 -k AGT
r -t 48.241153667 -s 18 -d 18 -p cbr -e 230 -c 2 -a 0 -i 3 -k AGT
+ -t 48.245386364 -s 23 -d -1 -p cbr -e 210 -c 2 -a 0 -i 17 -k AGT 
- -t 48.245386364 -s 23 -d -1 -p cbr -e 210 -c 2 -a 0 -i 17 -k AGT
h -t 48.245386364 -s 23 -d -1 -p cbr -e 210 -c 2 -a 0 -i 17 -k AGT
+ -t 48.278986364 -s 23 -d -1 -p cbr -e 210 -c 2 -a 0 -i 18 -k AGT 
- -t 48.278986364 -s 23 -d -1 -p cbr -e 210 -c 2 -a 0 -i 18 -k AGT
h -t 48.278986364 -s 23 -d -1 -p cbr -e 210 -c 2 -a 0 -i 18 -k AGT
r -t 48.301153667 -s 18 -d 18 -p cbr -e 230 -c 2 -a 0 -i 11 -k AGT
+ -t 48.312586364 -s 23 -d -1 -p cbr -e 210 -c 2 -a 0 -i 19 -k AGT 
- -t 48.312586364 -s 23 -d -1 -p cbr -e 210 -c 2 -a 0 -i 19 -k AGT
h -t 48.312586364 -s 23 -d -1 -p cbr -e 210 -c 2 -a 0 -i 19 -k AGT
+ -t 48.346186364 -s 23 -d -1 -p cbr -e 210 -c 2 -a 0 -i 20 -k AGT 
- -t 48.346186364 -s 23 -d -1 -p cbr -e 210 -c 2 -a 0 -i 20 -k AGT
h -t 48.346186364 -s 23 -d -1 -p cbr -e 210 -c 2 -a 0 -i 20 -k AGT
r -t 48.361153667 -s 18 -d 18 -p cbr -e 230 -c 2 -a 0 -i 4 -k AGT
+ -t 48.379786364 -s 23 -d -1 -p cbr -e 210 -c 2 -a 0 -i 21 -k AGT 
- -t 48.379786364 -s 23 -d -1 -p cbr -e 210 -c 2 -a 0 -i 21 -k AGT
h -t 48.379786364 -s 23 -d -1 -p cbr -e 210 -c 2 -a 0 -i 21 -k AGT
+ -t 48.413386364 -s 23 -d -1 -p cbr -e 210 -c 2 -a 0 -i 22 -k AGT 
- -t 48.413386364 -s 23 -d -1 -p cbr -e 210 -c 2 -a 0 -i 22 -k AGT
h -t 48.413386364 -s 23 -d -1 -p cbr -e 210 -c 2 -a 0 -i 22 -k AGT
r -t 48.421153667 -s 18 -d 18 -p cbr -e 230 -c 2 -a 0 -i 5 -k AGT
+ -t 48.446986364 -s 23 -d -1 -p cbr -e 210 -c 2 -a 0 -i 23 -k AGT 
- -t 48.446986364 -s 23 -d -1 -p cbr -e 210 -c 2 -a 0 -i 23 -k AGT
h -t 48.446986364 -s 23 -d -1 -p cbr -e 210 -c 2 -a 0 -i 23 -k AGT
+ -t 48.480586364 -s 23 -d -1 -p cbr -e 210 -c 2 -a 0 -i 24 -k AGT 
- -t 48.480586364 -s 23 -d -1 -p cbr -e 210 -c 2 -a 0 -i 24 -k AGT
h -t 48.480586364 -s 23 -d -1 -p cbr -e 210 -c 2 -a 0 -i 24 -k AGT
r -t 48.481153667 -s 18 -d 18 -p cbr -e 230 -c 2 -a 0 -i 6 -k AGT
+ -t 48.514186364 -s 23 -d -1 -p cbr -e 210 -c 2 -a 0 -i 25 -k AGT 
- -t 48.514186364 -s 23 -d -1 -p cbr -e 210 -c 2 -a 0 -i 25 -k AGT
h -t 48.514186364 -s 23 -d -1 -p cbr -e 210 -c 2 -a 0 -i 25 -k AGT
r -t 48.541153667 -s 18 -d 18 -p cbr -e 230 -c 2 -a 0 -i 12 -k AGT
+ -t 48.547786364 -s 23 -d -1 -p cbr -e 210 -c 2 -a 0 -i 26 -k AGT 
- -t 48.547786364 -s 23 -d -1 -p cbr -e 210 -c 2 -a 0 -i 26 -k AGT
h -t 48.547786364 -s 23 -d -1 -p cbr -e 210 -c 2 -a 0 -i 26 -k AGT
+ -t 48.581386364 -s 23 -d -1 -p cbr -e 210 -c 2 -a 0 -i 27 -k AGT 
- -t 48.581386364 -s 23 -d -1 -p cbr -e 210 -c 2 -a 0 -i 27 -k AGT
h -t 48.581386364 -s 23 -d -1 -p cbr -e 210 -c 2 -a 0 -i 27 -k AGT
r -t 48.601153667 -s 18 -d 18 -p cbr -e 230 -c 2 -a 0 -i 7 -k AGT
+ -t 48.614986364 -s 23 -d -1 -p cbr -e 210 -c 2 -a 0 -i 28 -k AGT 
- -t 48.614986364 -s 23 -d -1 -p cbr -e 210 -c 2 -a 0 -i 28 -k AGT
h -t 48.614986364 -s 23 -d -1 -p cbr -e 210 -c 2 -a 0 -i 28 -k AGT
+ -t 48.648586364 -s 23 -d -1 -p cbr -e 210 -c 2 -a 0 -i 29 -k AGT 
- -t 48.648586364 -s 23 -d -1 -p cbr -e 210 -c 2 -a 0 -i 29 -k AGT
h -t 48.648586364 -s 23 -d -1 -p cbr -e 210 -c 2 -a 0 -i 29 -k AGT
r -t 48.661153667 -s 18 -d 18 -p cbr -e 230 -c 2 -a 0 -i 8 -k AGT
+ -t 48.682186364 -s 23 -d -1 -p cbr -e 210 -c 2 -a 0 -i 30 -k AGT 
- -t 48.682186364 -s 23 -d -1 -p cbr -e 210 -c 2 -a 0 -i 30 -k AGT
h -t 48.682186364 -s 23 -d -1 -p cbr -e 210 -c 2 -a 0 -i 30 -k AGT
+ -t 48.715786364 -s 23 -d -1 -p cbr -e 210 -c 2 -a 0 -i 31 -k AGT 
- -t 48.715786364 -s 23 -d -1 -p cbr -e 210 -c 2 -a 0 -i 31 -k AGT
h -t 48.715786364 -s 23 -d -1 -p cbr -e 210 -c 2 -a 0 -i 31 -k AGT
r -t 48.721153667 -s 18 -d 18 -p cbr -e 230 -c 2 -a 0 -i 9 -k AGT
+ -t 48.749386364 -s 23 -d -1 -p cbr -e 210 -c 2 -a 0 -i 32 -k AGT 
- -t 48.749386364 -s 23 -d -1 -p cbr -e 210 -c 2 -a 0 -i 32 -k AGT
h -t 48.749386364 -s 23 -d -1 -p cbr -e 210 -c 2 -a 0 -i 32 -k AGT
r -t 48.781153667 -s 18 -d 18 -p cbr -e 230 -c 2 -a 0 -i 13 -k AGT
+ -t 48.782986364 -s 23 -d -1 -p cbr -e 210 -c 2 -a 0 -i 33 -k AGT 
- -t 48.782986364 -s 23 -d -1 -p cbr -e 210 -c 2 -a 0 -i 33 -k AGT
h -t 48.782986364 -s 23 -d -1 -p cbr -e 210 -c 2 -a 0 -i 33 -k AGT
+ -t 48.816586364 -s 23 -d -1 -p cbr -e 210 -c 2 -a 0 -i 34 -k AGT 
- -t 48.816586364 -s 23 -d -1 -p cbr -e 210 -c 2 -a 0 -i 34 -k AGT
h -t 48.816586364 -s 23 -d -1 -p cbr -e 210 -c 2 -a 0 -i 34 -k AGT
r -t 48.841153667 -s 18 -d 18 -p cbr -e 230 -c 2 -a 0 -i 10 -k AGT
+ -t 48.850186364 -s 23 -d -1 -p cbr -e 210 -c 2 -a 0 -i 35 -k AGT 
- -t 48.850186364 -s 23 -d -1 -p cbr -e 210 -c 2 -a 0 -i 35 -k AGT
h -t 48.850186364 -s 23 -d -1 -p cbr -e 210 -c 2 -a 0 -i 35 -k AGT
+ -t 48.883786364 -s 23 -d -1 -p cbr -e 210 -c 2 -a 0 -i 36 -k AGT 
- -t 48.883786364 -s 23 -d -1 -p cbr -e 210 -c 2 -a 0 -i 36 -k AGT
h -t 48.883786364 -s 23 -d -1 -p cbr -e 210 -c 2 -a 0 -i 36 -k AGT
r -t 48.901153667 -s 18 -d 18 -p cbr -e 230 -c 2 -a 0 -i 14 -k AGT
+ -t 48.917386364 -s 23 -d -1 -p cbr -e 210 -c 2 -a 0 -i 37 -k AGT 
- -t 48.917386364 -s 23 -d -1 -p cbr -e 210 -c 2 -a 0 -i 37 -k AGT
h -t 48.917386364 -s 23 -d -1 -p cbr -e 210 -c 2 -a 0 -i 37 -k AGT
+ -t 48.950986364 -s 23 -d -1 -p cbr -e 210 -c 2 -a 0 -i 38 -k AGT 
- -t 48.950986364 -s 23 -d -1 -p cbr -e 210 -c 2 -a 0 -i 38 -k AGT
h -t 48.950986364 -s 23 -d -1 -p cbr -e 210 -c 2 -a 0 -i 38 -k AGT
r -t 48.961153667 -s 18 -d 18 -p cbr -e 230 -c 2 -a 0 -i 15 -k AGT
+ -t 48.984586364 -s 23 -d -1 -p cbr -e 210 -c 2 -a 0 -i 39 -k AGT 
- -t 48.984586364 -s 23 -d -1 -p cbr -e 210 -c 2 -a 0 -i 39 -k AGT
h -t 48.984586364 -s 23 -d -1 -p cbr -e 210 -c 2 -a 0 -i 39 -k AGT
+ -t 49.018186364 -s 23 -d -1 -p cbr -e 210 -c 2 -a 0 -i 40 -k AGT 
- -t 49.018186364 -s 23 -d -1 -p cbr -e 210 -c 2 -a 0 -i 40 -k AGT
h -t 49.018186364 -s 23 -d -1 -p cbr -e 210 -c 2 -a 0 -i 40 -k AGT
r -t 49.021153667 -s 18 -d 18 -p cbr -e 230 -c 2 -a 0 -i 16 -k AGT
+ -t 49.051786364 -s 23 -d -1 -p cbr -e 210 -c 2 -a 0 -i 41 -k AGT 
- -t 49.051786364 -s 23 -d -1 -p cbr -e 210 -c 2 -a 0 -i 41 -k AGT
h -t 49.051786364 -s 23 -d -1 -p cbr -e 210 -c 2 -a 0 -i 41 -k AGT
r -t 49.081153667 -s 18 -d 18 -p cbr -e 230 -c 2 -a 0 -i 17 -k AGT
+ -t 49.085386364 -s 23 -d -1 -p cbr -e 210 -c 2 -a 0 -i 42 -k AGT 
- -t 49.085386364 -s 23 -d -1 -p cbr -e 210 -c 2 -a 0 -i 42 -k AGT
h -t 49.085386364 -s 23 -d -1 -p cbr -e 210 -c 2 -a 0 -i 42 -k AGT
+ -t 49.118986364 -s 23 -d -1 -p cbr -e 210 -c 2 -a 0 -i 43 -k AGT 
- -t 49.118986364 -s 23 -d -1 -p cbr -e 210 -c 2 -a 0 -i 43 -k AGT
h -t 49.118986364 -s 23 -d -1 -p cbr -e 210 -c 2 -a 0 -i 43 -k AGT
r -t 49.141153667 -s 18 -d 18 -p cbr -e 230 -c 2 -a 0 -i 18 -k AGT
+ -t 49.152586364 -s 23 -d -1 -p cbr -e 210 -c 2 -a 0 -i 44 -k AGT 
- -t 49.152586364 -s 23 -d -1 -p cbr -e 210 -c 2 -a 0 -i 44 -k AGT
h -t 49.152586364 -s 23 -d -1 -p cbr -e 210 -c 2 -a 0 -i 44 -k AGT
+ -t 49.186186364 -s 23 -d -1 -p cbr -e 210 -c 2 -a 0 -i 45 -k AGT 
- -t 49.186186364 -s 23 -d -1 -p cbr -e 210 -c 2 -a 0 -i 45 -k AGT
h -t 49.186186364 -s 23 -d -1 -p cbr -e 210 -c 2 -a 0 -i 45 -k AGT
r -t 49.201153667 -s 18 -d 18 -p cbr -e 230 -c 2 -a 0 -i 19 -k AGT
+ -t 49.219786364 -s 23 -d -1 -p cbr -e 210 -c 2 -a 0 -i 46 -k AGT 
- -t 49.219786364 -s 23 -d -1 -p cbr -e 210 -c 2 -a 0 -i 46 -k AGT
h -t 49.219786364 -s 23 -d -1 -p cbr -e 210 -c 2 -a 0 -i 46 -k AGT
+ -t 49.253386364 -s 23 -d -1 -p cbr -e 210 -c 2 -a 0 -i 47 -k AGT 
- -t 49.253386364 -s 23 -d -1 -p cbr -e 210 -c 2 -a 0 -i 47 -k AGT
h -t 49.253386364 -s 23 -d -1 -p cbr -e 210 -c 2 -a 0 -i 47 -k AGT
r -t 49.261153667 -s 18 -d 18 -p cbr -e 230 -c 2 -a 0 -i 20 -k AGT
+ -t 49.286986364 -s 23 -d -1 -p cbr -e 210 -c 2 -a 0 -i 48 -k AGT 
- -t 49.286986364 -s 23 -d -1 -p cbr -e 210 -c 2 -a 0 -i 48 -k AGT
h -t 49.286986364 -s 23 -d -1 -p cbr -e 210 -c 2 -a 0 -i 48 -k AGT
+ -t 49.320586364 -s 23 -d -1 -p cbr -e 210 -c 2 -a 0 -i 49 -k AGT 
- -t 49.320586364 -s 23 -d -1 -p cbr -e 210 -c 2 -a 0 -i 49 -k AGT
h -t 49.320586364 -s 23 -d -1 -p cbr -e 210 -c 2 -a 0 -i 49 -k AGT
r -t 49.321153667 -s 18 -d 18 -p cbr -e 230 -c 2 -a 0 -i 21 -k AGT
+ -t 49.354186364 -s 23 -d -1 -p cbr -e 210 -c 2 -a 0 -i 50 -k AGT 
- -t 49.354186364 -s 23 -d -1 -p cbr -e 210 -c 2 -a 0 -i 50 -k AGT
h -t 49.354186364 -s 23 -d -1 -p cbr -e 210 -c 2 -a 0 -i 50 -k AGT
r -t 49.381153667 -s 18 -d 18 -p cbr -e 230 -c 2 -a 0 -i 22 -k AGT
+ -t 49.387786364 -s 23 -d -1 -p cbr -e 210 -c 2 -a 0 -i 51 -k AGT 
- -t 49.387786364 -s 23 -d -1 -p cbr -e 210 -c 2 -a 0 -i 51 -k AGT
h -t 49.387786364 -s 23 -d -1 -p cbr -e 210 -c 2 -a 0 -i 51 -k AGT
+ -t 49.421386364 -s 23 -d -1 -p cbr -e 210 -c 2 -a 0 -i 52 -k AGT 
- -t 49.421386364 -s 23 -d -1 -p cbr -e 210 -c 2 -a 0 -i 52 -k AGT
h -t 49.421386364 -s 23 -d -1 -p cbr -e 210 -c 2 -a 0 -i 52 -k AGT
r -t 49.441153667 -s 18 -d 18 -p cbr -e 230 -c 2 -a 0 -i 23 -k AGT
+ -t 49.454986364 -s 23 -d -1 -p cbr -e 210 -c 2 -a 0 -i 53 -k AGT 
- -t 49.454986364 -s 23 -d -1 -p cbr -e 210 -c 2 -a 0 -i 53 -k AGT
h -t 49.454986364 -s 23 -d -1 -p cbr -e 210 -c 2 -a 0 -i 53 -k AGT
+ -t 49.488586364 -s 23 -d -1 -p cbr -e 210 -c 2 -a 0 -i 54 -k AGT 
- -t 49.488586364 -s 23 -d -1 -p cbr -e 210 -c 2 -a 0 -i 54 -k AGT
h -t 49.488586364 -s 23 -d -1 -p cbr -e 210 -c 2 -a 0 -i 54 -k AGT
r -t 49.501153667 -s 18 -d 18 -p cbr -e 230 -c 2 -a 0 -i 24 -k AGT
+ -t 49.522186364 -s 23 -d -1 -p cbr -e 210 -c 2 -a 0 -i 55 -k AGT 
- -t 49.522186364 -s 23 -d -1 -p cbr -e 210 -c 2 -a 0 -i 55 -k AGT
h -t 49.522186364 -s 23 -d -1 -p cbr -e 210 -c 2 -a 0 -i 55 -k AGT
+ -t 49.555786364 -s 23 -d -1 -p cbr -e 210 -c 2 -a 0 -i 56 -k AGT 
- -t 49.555786364 -s 23 -d -1 -p cbr -e 210 -c 2 -a 0 -i 56 -k AGT
h -t 49.555786364 -s 23 -d -1 -p cbr -e 210 -c 2 -a 0 -i 56 -k AGT
r -t 49.561153667 -s 18 -d 18 -p cbr -e 230 -c 2 -a 0 -i 25 -k AGT
+ -t 49.589386364 -s 23 -d -1 -p cbr -e 210 -c 2 -a 0 -i 57 -k AGT 
- -t 49.589386364 -s 23 -d -1 -p cbr -e 210 -c 2 -a 0 -i 57 -k AGT
h -t 49.589386364 -s 23 -d -1 -p cbr -e 210 -c 2 -a 0 -i 57 -k AGT
r -t 49.621153667 -s 18 -d 18 -p cbr -e 230 -c 2 -a 0 -i 26 -k AGT
+ -t 49.622986364 -s 23 -d -1 -p cbr -e 210 -c 2 -a 0 -i 58 -k AGT 
- -t 49.622986364 -s 23 -d -1 -p cbr -e 210 -c 2 -a 0 -i 58 -k AGT
h -t 49.622986364 -s 23 -d -1 -p cbr -e 210 -c 2 -a 0 -i 58 -k AGT
+ -t 49.656586364 -s 23 -d -1 -p cbr -e 210 -c 2 -a 0 -i 59 -k AGT 
- -t 49.656586364 -s 23 -d -1 -p cbr -e 210 -c 2 -a 0 -i 59 -k AGT
h -t 49.656586364 -s 23 -d -1 -p cbr -e 210 -c 2 -a 0 -i 59 -k AGT
r -t 49.681153667 -s 18 -d 18 -p cbr -e 230 -c 2 -a 0 -i 27 -k AGT
+ -t 49.690186364 -s 23 -d -1 -p cbr -e 210 -c 2 -a 0 -i 60 -k AGT 
- -t 49.690186364 -s 23 -d -1 -p cbr -e 210 -c 2 -a 0 -i 60 -k AGT
h -t 49.690186364 -s 23 -d -1 -p cbr -e 210 -c 2 -a 0 -i 60 -k AGT
+ -t 49.723786364 -s 23 -d -1 -p cbr -e 210 -c 2 -a 0 -i 61 -k AGT 
- -t 49.723786364 -s 23 -d -1 -p cbr -e 210 -c 2 -a 0 -i 61 -k AGT
h -t 49.723786364 -s 23 -d -1 -p cbr -e 210 -c 2 -a 0 -i 61 -k AGT
r -t 49.741153667 -s 18 -d 18 -p cbr -e 230 -c 2 -a 0 -i 28 -k AGT
+ -t 49.757386364 -s 23 -d -1 -p cbr -e 210 -c 2 -a 0 -i 62 -k AGT 
- -t 49.757386364 -s 23 -d -1 -p cbr -e 210 -c 2 -a 0 -i 62 -k AGT
h -t 49.757386364 -s 23 -d -1 -p cbr -e 210 -c 2 -a 0 -i 62 -k AGT
+ -t 49.790986364 -s 23 -d -1 -p cbr -e 210 -c 2 -a 0 -i 63 -k AGT 
- -t 49.790986364 -s 23 -d -1 -p cbr -e 210 -c 2 -a 0 -i 63 -k AGT
h -t 49.790986364 -s 23 -d -1 -p cbr -e 210 -c 2 -a 0 -i 63 -k AGT
r -t 49.801153667 -s 18 -d 18 -p cbr -e 230 -c 2 -a 0 -i 29 -k AGT
+ -t 49.824586364 -s 23 -d -1 -p cbr -e 210 -c 2 -a 0 -i 64 -k AGT 
- -t 49.824586364 -s 23 -d -1 -p cbr -e 210 -c 2 -a 0 -i 64 -k AGT
h -t 49.824586364 -s 23 -d -1 -p cbr -e 210 -c 2 -a 0 -i 64 -k AGT
+ -t 49.858186364 -s 23 -d -1 -p cbr -e 210 -c 2 -a 0 -i 65 -k AGT 
- -t 49.858186364 -s 23 -d -1 -p cbr -e 210 -c 2 -a 0 -i 65 -k AGT
h -t 49.858186364 -s 23 -d -1 -p cbr -e 210 -c 2 -a 0 -i 65 -k AGT
r -t 49.861153667 -s 18 -d 18 -p cbr -e 230 -c 2 -a 0 -i 30 -k AGT
+ -t 49.891786364 -s 23 -d -1 -p cbr -e 210 -c 2 -a 0 -i 66 -k AGT 
- -t 49.891786364 -s 23 -d -1 -p cbr -e 210 -c 2 -a 0 -i 66 -k AGT
h -t 49.891786364 -s 23 -d -1 -p cbr -e 210 -c 2 -a 0 -i 66 -k AGT
r -t 49.921153667 -s 18 -d 18 -p cbr -e 230 -c 2 -a 0 -i 31 -k AGT
+ -t 49.925386364 -s 23 -d -1 -p cbr -e 210 -c 2 -a 0 -i 67 -k AGT 
- -t 49.925386364 -s 23 -d -1 -p cbr -e 210 -c 2 -a 0 -i 67 -k AGT
h -t 49.925386364 -s 23 -d -1 -p cbr -e 210 -c 2 -a 0 -i 67 -k AGT
+ -t 49.958986364 -s 23 -d -1 -p cbr -e 210 -c 2 -a 0 -i 68 -k AGT 
- -t 49.958986364 -s 23 -d -1 -p cbr -e 210 -c 2 -a 0 -i 68 -k AGT
h -t 49.958986364 -s 23 -d -1 -p cbr -e 210 -c 2 -a 0 -i 68 -k AGT
r -t 49.981153667 -s 18 -d 18 -p cbr -e 230 -c 2 -a 0 -i 32 -k AGT
+ -t 49.992586364 -s 23 -d -1 -p cbr -e 210 -c 2 -a 0 -i 69 -k AGT 
- -t 49.992586364 -s 23 -d -1 -p cbr -e 210 -c 2 -a 0 -i 69 -k AGT
h -t 49.992586364 -s 23 -d -1 -p cbr -e 210 -c 2 -a 0 -i 69 -k AGT
+ -t 50.026186364 -s 23 -d -1 -p cbr -e 210 -c 2 -a 0 -i 70 -k AGT 
- -t 50.026186364 -s 23 -d -1 -p cbr -e 210 -c 2 -a 0 -i 70 -k AGT
h -t 50.026186364 -s 23 -d -1 -p cbr -e 210 -c 2 -a 0 -i 70 -k AGT
r -t 50.041153667 -s 18 -d 18 -p cbr -e 230 -c 2 -a 0 -i 33 -k AGT
+ -t 50.059786364 -s 23 -d -1 -p cbr -e 210 -c 2 -a 0 -i 71 -k AGT 
- -t 50.059786364 -s 23 -d -1 -p cbr -e 210 -c 2 -a 0 -i 71 -k AGT
h -t 50.059786364 -s 23 -d -1 -p cbr -e 210 -c 2 -a 0 -i 71 -k AGT
+ -t 50.093386364 -s 23 -d -1 -p cbr -e 210 -c 2 -a 0 -i 72 -k AGT 
- -t 50.093386364 -s 23 -d -1 -p cbr -e 210 -c 2 -a 0 -i 72 -k AGT
h -t 50.093386364 -s 23 -d -1 -p cbr -e 210 -c 2 -a 0 -i 72 -k AGT
r -t 50.101153667 -s 18 -d 18 -p cbr -e 230 -c 2 -a 0 -i 34 -k AGT
+ -t 50.126986364 -s 23 -d -1 -p cbr -e 210 -c 2 -a 0 -i 73 -k AGT 
- -t 50.126986364 -s 23 -d -1 -p cbr -e 210 -c 2 -a 0 -i 73 -k AGT
h -t 50.126986364 -s 23 -d -1 -p cbr -e 210 -c 2 -a 0 -i 73 -k AGT
+ -t 50.160586364 -s 23 -d -1 -p cbr -e 210 -c 2 -a 0 -i 74 -k AGT 
- -t 50.160586364 -s 23 -d -1 -p cbr -e 210 -c 2 -a 0 -i 74 -k AGT
h -t 50.160586364 -s 23 -d -1 -p cbr -e 210 -c 2 -a 0 -i 74 -k AGT
r -t 50.161153667 -s 18 -d 18 -p cbr -e 230 -c 2 -a 0 -i 35 -k AGT
+ -t 50.194186364 -s 23 -d -1 -p cbr -e 210 -c 2 -a 0 -i 75 -k AGT 
- -t 50.194186364 -s 23 -d -1 -p cbr -e 210 -c 2 -a 0 -i 75 -k AGT
h -t 50.194186364 -s 23 -d -1 -p cbr -e 210 -c 2 -a 0 -i 75 -k AGT
r -t 50.221153667 -s 18 -d 18 -p cbr -e 230 -c 2 -a 0 -i 36 -k AGT
+ -t 50.227786364 -s 23 -d -1 -p cbr -e 210 -c 2 -a 0 -i 76 -k AGT 
- -t 50.227786364 -s 23 -d -1 -p cbr -e 210 -c 2 -a 0 -i 76 -k AGT
h -t 50.227786364 -s 23 -d -1 -p cbr -e 210 -c 2 -a 0 -i 76 -k AGT
+ -t 50.261386364 -s 23 -d -1 -p cbr -e 210 -c 2 -a 0 -i 77 -k AGT 
- -t 50.261386364 -s 23 -d -1 -p cbr -e 210 -c 2 -a 0 -i 77 -k AGT
h -t 50.261386364 -s 23 -d -1 -p cbr -e 210 -c 2 -a 0 -i 77 -k AGT
r -t 50.281153667 -s 18 -d 18 -p cbr -e 230 -c 2 -a 0 -i 37 -k AGT
+ -t 50.294986364 -s 23 -d -1 -p cbr -e 210 -c 2 -a 0 -i 78 -k AGT 
- -t 50.294986364 -s 23 -d -1 -p cbr -e 210 -c 2 -a 0 -i 78 -k AGT
h -t 50.294986364 -s 23 -d -1 -p cbr -e 210 -c 2 -a 0 -i 78 -k AGT
+ -t 50.328586364 -s 23 -d -1 -p cbr -e 210 -c 2 -a 0 -i 79 -k AGT 
- -t 50.328586364 -s 23 -d -1 -p cbr -e 210 -c 2 -a 0 -i 79 -k AGT
h -t 50.328586364 -s 23 -d -1 -p cbr -e 210 -c 2 -a 0 -i 79 -k AGT
r -t 50.341153667 -s 18 -d 18 -p cbr -e 230 -c 2 -a 0 -i 38 -k AGT
+ -t 50.362186364 -s 23 -d -1 -p cbr -e 210 -c 2 -a 0 -i 80 -k AGT 
- -t 50.362186364 -s 23 -d -1 -p cbr -e 210 -c 2 -a 0 -i 80 -k AGT
h -t 50.362186364 -s 23 -d -1 -p cbr -e 210 -c 2 -a 0 -i 80 -k AGT
+ -t 50.395786364 -s 23 -d -1 -p cbr -e 210 -c 2 -a 0 -i 81 -k AGT 
- -t 50.395786364 -s 23 -d -1 -p cbr -e 210 -c 2 -a 0 -i 81 -k AGT
h -t 50.395786364 -s 23 -d -1 -p cbr -e 210 -c 2 -a 0 -i 81 -k AGT
r -t 50.401153667 -s 18 -d 18 -p cbr -e 230 -c 2 -a 0 -i 39 -k AGT
+ -t 50.429386364 -s 23 -d -1 -p cbr -e 210 -c 2 -a 0 -i 82 -k AGT 
- -t 50.429386364 -s 23 -d -1 -p cbr -e 210 -c 2 -a 0 -i 82 -k AGT
h -t 50.429386364 -s 23 -d -1 -p cbr -e 210 -c 2 -a 0 -i 82 -k AGT
r -t 50.461153667 -s 18 -d 18 -p cbr -e 230 -c 2 -a 0 -i 40 -k AGT
+ -t 50.462986364 -s 23 -d -1 -p cbr -e 210 -c 2 -a 0 -i 83 -k AGT 
- -t 50.462986364 -s 23 -d -1 -p cbr -e 210 -c 2 -a 0 -i 83 -k AGT
h -t 50.462986364 -s 23 -d -1 -p cbr -e 210 -c 2 -a 0 -i 83 -k AGT
+ -t 50.496586364 -s 23 -d -1 -p cbr -e 210 -c 2 -a 0 -i 84 -k AGT 
- -t 50.496586364 -s 23 -d -1 -p cbr -e 210 -c 2 -a 0 -i 84 -k AGT
h -t 50.496586364 -s 23 -d -1 -p cbr -e 210 -c 2 -a 0 -i 84 -k AGT
r -t 50.521153667 -s 18 -d 18 -p cbr -e 230 -c 2 -a 0 -i 41 -k AGT
+ -t 50.530186364 -s 23 -d -1 -p cbr -e 210 -c 2 -a 0 -i 85 -k AGT 
- -t 50.530186364 -s 23 -d -1 -p cbr -e 210 -c 2 -a 0 -i 85 -k AGT
h -t 50.530186364 -s 23 -d -1 -p cbr -e 210 -c 2 -a 0 -i 85 -k AGT
+ -t 50.563786364 -s 23 -d -1 -p cbr -e 210 -c 2 -a 0 -i 86 -k AGT 
- -t 50.563786364 -s 23 -d -1 -p cbr -e 210 -c 2 -a 0 -i 86 -k AGT
h -t 50.563786364 -s 23 -d -1 -p cbr -e 210 -c 2 -a 0 -i 86 -k AGT
r -t 50.581153667 -s 18 -d 18 -p cbr -e 230 -c 2 -a 0 -i 42 -k AGT
+ -t 50.597386364 -s 23 -d -1 -p cbr -e 210 -c 2 -a 0 -i 87 -k AGT 
- -t 50.597386364 -s 23 -d -1 -p cbr -e 210 -c 2 -a 0 -i 87 -k AGT
h -t 50.597386364 -s 23 -d -1 -p cbr -e 210 -c 2 -a 0 -i 87 -k AGT
+ -t 50.630986364 -s 23 -d -1 -p cbr -e 210 -c 2 -a 0 -i 88 -k AGT 
- -t 50.630986364 -s 23 -d -1 -p cbr -e 210 -c 2 -a 0 -i 88 -k AGT
h -t 50.630986364 -s 23 -d -1 -p cbr -e 210 -c 2 -a 0 -i 88 -k AGT
r -t 50.641153667 -s 18 -d 18 -p cbr -e 230 -c 2 -a 0 -i 43 -k AGT
+ -t 50.664586364 -s 23 -d -1 -p cbr -e 210 -c 2 -a 0 -i 89 -k AGT 
- -t 50.664586364 -s 23 -d -1 -p cbr -e 210 -c 2 -a 0 -i 89 -k AGT
h -t 50.664586364 -s 23 -d -1 -p cbr -e 210 -c 2 -a 0 -i 89 -k AGT
+ -t 50.698186364 -s 23 -d -1 -p cbr -e 210 -c 2 -a 0 -i 90 -k AGT 
- -t 50.698186364 -s 23 -d -1 -p cbr -e 210 -c 2 -a 0 -i 90 -k AGT
h -t 50.698186364 -s 23 -d -1 -p cbr -e 210 -c 2 -a 0 -i 90 -k AGT
r -t 50.701153667 -s 18 -d 18 -p cbr -e 230 -c 2 -a 0 -i 44 -k AGT
+ -t 50.731786364 -s 23 -d -1 -p cbr -e 210 -c 2 -a 0 -i 91 -k AGT 
- -t 50.731786364 -s 23 -d -1 -p cbr -e 210 -c 2 -a 0 -i 91 -k AGT
h -t 50.731786364 -s 23 -d -1 -p cbr -e 210 -c 2 -a 0 -i 91 -k AGT
r -t 50.761153667 -s 18 -d 18 -p cbr -e 230 -c 2 -a 0 -i 45 -k AGT
+ -t 50.765386364 -s 23 -d -1 -p cbr -e 210 -c 2 -a 0 -i 92 -k AGT 
- -t 50.765386364 -s 23 -d -1 -p cbr -e 210 -c 2 -a 0 -i 92 -k AGT
h -t 50.765386364 -s 23 -d -1 -p cbr -e 210 -c 2 -a 0 -i 92 -k AGT
+ -t 50.798986364 -s 23 -d -1 -p cbr -e 210 -c 2 -a 0 -i 93 -k AGT 
- -t 50.798986364 -s 23 -d -1 -p cbr -e 210 -c 2 -a 0 -i 93 -k AGT
h -t 50.798986364 -s 23 -d -1 -p cbr -e 210 -c 2 -a 0 -i 93 -k AGT
r -t 50.821153667 -s 18 -d 18 -p cbr -e 230 -c 2 -a 0 -i 46 -k AGT
+ -t 50.832586364 -s 23 -d -1 -p cbr -e 210 -c 2 -a 0 -i 94 -k AGT 
- -t 50.832586364 -s 23 -d -1 -p cbr -e 210 -c 2 -a 0 -i 94 -k AGT
h -t 50.832586364 -s 23 -d -1 -p cbr -e 210 -c 2 -a 0 -i 94 -k AGT
+ -t 50.866186364 -s 23 -d -1 -p cbr -e 210 -c 2 -a 0 -i 95 -k AGT 
- -t 50.866186364 -s 23 -d -1 -p cbr -e 210 -c 2 -a 0 -i 95 -k AGT
h -t 50.866186364 -s 23 -d -1 -p cbr -e 210 -c 2 -a 0 -i 95 -k AGT
r -t 50.881153667 -s 18 -d 18 -p cbr -e 230 -c 2 -a 0 -i 47 -k AGT
+ -t 50.899786364 -s 23 -d -1 -p cbr -e 210 -c 2 -a 0 -i 96 -k AGT 
- -t 50.899786364 -s 23 -d -1 -p cbr -e 210 -c 2 -a 0 -i 96 -k AGT
h -t 50.899786364 -s 23 -d -1 -p cbr -e 210 -c 2 -a 0 -i 96 -k AGT
+ -t 50.933386364 -s 23 -d -1 -p cbr -e 210 -c 2 -a 0 -i 97 -k AGT 
- -t 50.933386364 -s 23 -d -1 -p cbr -e 210 -c 2 -a 0 -i 97 -k AGT
h -t 50.933386364 -s 23 -d -1 -p cbr -e 210 -c 2 -a 0 -i 97 -k AGT
r -t 50.941153667 -s 18 -d 18 -p cbr -e 230 -c 2 -a 0 -i 48 -k AGT
+ -t 50.966986364 -s 23 -d -1 -p cbr -e 210 -c 2 -a 0 -i 98 -k AGT 
- -t 50.966986364 -s 23 -d -1 -p cbr -e 210 -c 2 -a 0 -i 98 -k AGT
h -t 50.966986364 -s 23 -d -1 -p cbr -e 210 -c 2 -a 0 -i 98 -k AGT
+ -t 51.000586364 -s 23 -d -1 -p cbr -e 210 -c 2 -a 0 -i 99 -k AGT 
- -t 51.000586364 -s 23 -d -1 -p cbr -e 210 -c 2 -a 0 -i 99 -k AGT
h -t 51.000586364 -s 23 -d -1 -p cbr -e 210 -c 2 -a 0 -i 99 -k AGT
r -t 51.001153667 -s 18 -d 18 -p cbr -e 230 -c 2 -a 0 -i 49 -k AGT
+ -t 51.034186364 -s 23 -d -1 -p cbr -e 210 -c 2 -a 0 -i 100 -k AGT 
- -t 51.034186364 -s 23 -d -1 -p cbr -e 210 -c 2 -a 0 -i 100 -k AGT
h -t 51.034186364 -s 23 -d -1 -p cbr -e 210 -c 2 -a 0 -i 100 -k AGT
r -t 51.061153667 -s 18 -d 18 -p cbr -e 230 -c 2 -a 0 -i 50 -k AGT
+ -t 51.067786364 -s 23 -d -1 -p cbr -e 210 -c 2 -a 0 -i 101 -k AGT 
- -t 51.067786364 -s 23 -d -1 -p cbr -e 210 -c 2 -a 0 -i 101 -k AGT
h -t 51.067786364 -s 23 -d -1 -p cbr -e 210 -c 2 -a 0 -i 101 -k AGT
+ -t 51.101386364 -s 23 -d -1 -p cbr -e 210 -c 2 -a 0 -i 102 -k AGT 
- -t 51.101386364 -s 23 -d -1 -p cbr -e 210 -c 2 -a 0 -i 102 -k AGT
h -t 51.101386364 -s 23 -d -1 -p cbr -e 210 -c 2 -a 0 -i 102 -k AGT
r -t 51.121153667 -s 18 -d 18 -p cbr -e 230 -c 2 -a 0 -i 51 -k AGT
+ -t 51.134986364 -s 23 -d -1 -p cbr -e 210 -c 2 -a 0 -i 103 -k AGT 
- -t 51.134986364 -s 23 -d -1 -p cbr -e 210 -c 2 -a 0 -i 103 -k AGT
h -t 51.134986364 -s 23 -d -1 -p cbr -e 210 -c 2 -a 0 -i 103 -k AGT
+ -t 51.168586364 -s 23 -d -1 -p cbr -e 210 -c 2 -a 0 -i 104 -k AGT 
- -t 51.168586364 -s 23 -d -1 -p cbr -e 210 -c 2 -a 0 -i 104 -k AGT
h -t 51.168586364 -s 23 -d -1 -p cbr -e 210 -c 2 -a 0 -i 104 -k AGT
r -t 51.181153667 -s 18 -d 18 -p cbr -e 230 -c 2 -a 0 -i 52 -k AGT
+ -t 51.202186364 -s 23 -d -1 -p cbr -e 210 -c 2 -a 0 -i 105 -k AGT 
- -t 51.202186364 -s 23 -d -1 -p cbr -e 210 -c 2 -a 0 -i 105 -k AGT
h -t 51.202186364 -s 23 -d -1 -p cbr -e 210 -c 2 -a 0 -i 105 -k AGT
+ -t 51.235786364 -s 23 -d -1 -p cbr -e 210 -c 2 -a 0 -i 106 -k AGT 
- -t 51.235786364 -s 23 -d -1 -p cbr -e 210 -c 2 -a 0 -i 106 -k AGT
h -t 51.235786364 -s 23 -d -1 -p cbr -e 210 -c 2 -a 0 -i 106 -k AGT
r -t 51.241153667 -s 18 -d 18 -p cbr -e 230 -c 2 -a 0 -i 53 -k AGT
+ -t 51.269386364 -s 23 -d -1 -p cbr -e 210 -c 2 -a 0 -i 107 -k AGT 
- -t 51.269386364 -s 23 -d -1 -p cbr -e 210 -c 2 -a 0 -i 107 -k AGT
h -t 51.269386364 -s 23 -d -1 -p cbr -e 210 -c 2 -a 0 -i 107 -k AGT
r -t 51.301153667 -s 18 -d 18 -p cbr -e 230 -c 2 -a 0 -i 54 -k AGT
+ -t 51.302986364 -s 23 -d -1 -p cbr -e 210 -c 2 -a 0 -i 108 -k AGT 
- -t 51.302986364 -s 23 -d -1 -p cbr -e 210 -c 2 -a 0 -i 108 -k AGT
h -t 51.302986364 -s 23 -d -1 -p cbr -e 210 -c 2 -a 0 -i 108 -k AGT
+ -t 51.336586364 -s 23 -d -1 -p cbr -e 210 -c 2 -a 0 -i 109 -k AGT 
- -t 51.336586364 -s 23 -d -1 -p cbr -e 210 -c 2 -a 0 -i 109 -k AGT
h -t 51.336586364 -s 23 -d -1 -p cbr -e 210 -c 2 -a 0 -i 109 -k AGT
r -t 51.361153667 -s 18 -d 18 -p cbr -e 230 -c 2 -a 0 -i 55 -k AGT
+ -t 51.370186364 -s 23 -d -1 -p cbr -e 210 -c 2 -a 0 -i 110 -k AGT 
- -t 51.370186364 -s 23 -d -1 -p cbr -e 210 -c 2 -a 0 -i 110 -k AGT
h -t 51.370186364 -s 23 -d -1 -p cbr -e 210 -c 2 -a 0 -i 110 -k AGT
+ -t 51.403786364 -s 23 -d -1 -p cbr -e 210 -c 2 -a 0 -i 111 -k AGT 
- -t 51.403786364 -s 23 -d -1 -p cbr -e 210 -c 2 -a 0 -i 111 -k AGT
h -t 51.403786364 -s 23 -d -1 -p cbr -e 210 -c 2 -a 0 -i 111 -k AGT
r -t 51.421153667 -s 18 -d 18 -p cbr -e 230 -c 2 -a 0 -i 56 -k AGT
+ -t 51.437386364 -s 23 -d -1 -p cbr -e 210 -c 2 -a 0 -i 112 -k AGT 
- -t 51.437386364 -s 23 -d -1 -p cbr -e 210 -c 2 -a 0 -i 112 -k AGT
h -t 51.437386364 -s 23 -d -1 -p cbr -e 210 -c 2 -a 0 -i 112 -k AGT
+ -t 51.470986364 -s 23 -d -1 -p cbr -e 210 -c 2 -a 0 -i 113 -k AGT 
- -t 51.470986364 -s 23 -d -1 -p cbr -e 210 -c 2 -a 0 -i 113 -k AGT
h -t 51.470986364 -s 23 -d -1 -p cbr -e 210 -c 2 -a 0 -i 113 -k AGT
r -t 51.481153667 -s 18 -d 18 -p cbr -e 230 -c 2 -a 0 -i 57 -k AGT
+ -t 51.504586364 -s 23 -d -1 -p cbr -e 210 -c 2 -a 0 -i 114 -k AGT 
- -t 51.504586364 -s 23 -d -1 -p cbr -e 210 -c 2 -a 0 -i 114 -k AGT
h -t 51.504586364 -s 23 -d -1 -p cbr -e 210 -c 2 -a 0 -i 114 -k AGT
+ -t 51.538186364 -s 23 -d -1 -p cbr -e 210 -c 2 -a 0 -i 115 -k AGT 
- -t 51.538186364 -s 23 -d -1 -p cbr -e 210 -c 2 -a 0 -i 115 -k AGT
h -t 51.538186364 -s 23 -d -1 -p cbr -e 210 -c 2 -a 0 -i 115 -k AGT
r -t 51.541153667 -s 18 -d 18 -p cbr -e 230 -c 2 -a 0 -i 58 -k AGT
+ -t 51.571786364 -s 23 -d -1 -p cbr -e 210 -c 2 -a 0 -i 116 -k AGT 
- -t 51.571786364 -s 23 -d -1 -p cbr -e 210 -c 2 -a 0 -i 116 -k AGT
h -t 51.571786364 -s 23 -d -1 -p cbr -e 210 -c 2 -a 0 -i 116 -k AGT
r -t 51.601153667 -s 18 -d 18 -p cbr -e 230 -c 2 -a 0 -i 59 -k AGT
+ -t 51.605386364 -s 23 -d -1 -p cbr -e 210 -c 2 -a 0 -i 117 -k AGT 
- -t 51.605386364 -s 23 -d -1 -p cbr -e 210 -c 2 -a 0 -i 117 -k AGT
h -t 51.605386364 -s 23 -d -1 -p cbr -e 210 -c 2 -a 0 -i 117 -k AGT
+ -t 51.638986364 -s 23 -d -1 -p cbr -e 210 -c 2 -a 0 -i 118 -k AGT 
- -t 51.638986364 -s 23 -d -1 -p cbr -e 210 -c 2 -a 0 -i 118 -k AGT
h -t 51.638986364 -s 23 -d -1 -p cbr -e 210 -c 2 -a 0 -i 118 -k AGT
r -t 51.661153667 -s 18 -d 18 -p cbr -e 230 -c 2 -a 0 -i 60 -k AGT
+ -t 51.672586364 -s 23 -d -1 -p cbr -e 210 -c 2 -a 0 -i 119 -k AGT 
- -t 51.672586364 -s 23 -d -1 -p cbr -e 210 -c 2 -a 0 -i 119 -k AGT
h -t 51.672586364 -s 23 -d -1 -p cbr -e 210 -c 2 -a 0 -i 119 -k AGT
+ -t 51.706186364 -s 23 -d -1 -p cbr -e 210 -c 2 -a 0 -i 120 -k AGT 