n -t * -s 0  -x 50 -y 50 -Z 0 -z 10  -v circle -c black
n -t * -s 1  -x 50 -y 250 -Z 0 -z 10  -v circle -c black
n -t * -s 2  -x 50 -y 450 -Z 0 -z 10  -v circle -c black
n -t * -s 3  -x 50 -y 650 -Z 0 -z 10  -v circle -c black
n -t * -s 4  -x 50 -y 850 -Z 0 -z 10  -v circle -c black
n -t * -s 5  -x 250 -y 50 -Z 0 -z 10  -v circle -c black
n -t * -s 6  -x 250 -y 250 -Z 0 -z 10  -v circle -c black
n -t * -s 7  -x 250 -y 450 -Z 0 -z 10  -v circle -c black
n -t * -s 8  -x 250 -y 650 -Z 0 -z 10  -v circle -c black
n -t * -s 9  -x 250 -y 850 -Z 0 -z 10  -v circle -c black
n -t * -s 10  -x 450 -y 50 -Z 0 -z 10  -v circle -c black
n -t * -s 11  -x 450 -y 250 -Z 0 -z 10  -v circle -c black
n -t * -s 12  -x 450 -y 450 -Z 0 -z 10  -v circle -c black
n -t * -s 13  -x 450 -y 650 -Z 0 -z 10  -v circle -c black
n -t * -s 14  -x 450 -y 850 -Z 0 -z 10  -v circle -c black
n -t * -s 15  -x 650 -y 50 -Z 0 -z 10  -v circle -c black
n -t * -s 16  -x 650 -y 250 -Z 0 -z 10  -v circle -c black
n -t * -s 17  -x 650 -y 450 -Z 0 -z 10  -v circle -c black
n -t * -s 18  -x 650 -y 650 -Z 0 -z 10  -v circle -c black
n -t * -s 19  -x 650 -y 850 -Z 0 -z 10  -v circle -c black
n -t * -s 20  -x 850 -y 50 -Z 0 -z 10  -v circle -c black
n -t * -s 21  -x 850 -y 250 -Z 0 -z 10  -v circle -c black
n -t * -s 22  -x 850 -y 450 -Z 0 -z 10  -v circle -c black
n -t * -s 23  -x 850 -y 650 -Z 0 -z 10  -v circle -c black
n -t * -s 24  -x 850 -y 850 -Z 0 -z 10  -v circle -c black
V -t * -v 1.0a5 -a 0
W -t * -x 1000 -y 1000
A -t * -n 1 -p 0 -o 0x7fffffff -c 30 -a 1
A -t * -h 1 -m 1073741823 -s 0
+ -t 18.388662496 -s 12 -d -1 -p cbr -e 210 -c 2 -a 0 -i 0 -k AGT 
- -t 18.388662496 -s 12 -d -1 -p cbr -e 210 -c 2 -a 0 -i 0 -k AGT
h -t 18.388662496 -s 12 -d -1 -p cbr -e 210 -c 2 -a 0 -i 0 -k AGT
+ -t 18.397062496 -s 12 -d -1 -p cbr -e 210 -c 2 -a 0 -i 1 -k AGT 
- -t 18.397062496 -s 12 -d -1 -p cbr -e 210 -c 2 -a 0 -i 1 -k AGT
h -t 18.397062496 -s 12 -d -1 -p cbr -e 210 -c 2 -a 0 -i 1 -k AGT
+ -t 18.405462496 -s 12 -d -1 -p cbr -e 210 -c 2 -a 0 -i 2 -k AGT 
- -t 18.405462496 -s 12 -d -1 -p cbr -e 210 -c 2 -a 0 -i 2 -k AGT
h -t 18.405462496 -s 12 -d -1 -p cbr -e 210 -c 2 -a 0 -i 2 -k AGT
+ -t 18.413862496 -s 12 -d -1 -p cbr -e 210 -c 2 -a 0 -i 3 -k AGT 
- -t 18.413862496 -s 12 -d -1 -p cbr -e 210 -c 2 -a 0 -i 3 -k AGT
h -t 18.413862496 -s 12 -d -1 -p cbr -e 210 -c 2 -a 0 -i 3 -k AGT
+ -t 18.422262496 -s 12 -d -1 -p cbr -e 210 -c 2 -a 0 -i 4 -k AGT 
- -t 18.422262496 -s 12 -d -1 -p cbr -e 210 -c 2 -a 0 -i 4 -k AGT
h -t 18.422262496 -s 12 -d -1 -p cbr -e 210 -c 2 -a 0 -i 4 -k AGT
+ -t 18.430662496 -s 12 -d -1 -p cbr -e 210 -c 2 -a 0 -i 5 -k AGT 
- -t 18.430662496 -s 12 -d -1 -p cbr -e 210 -c 2 -a 0 -i 5 -k AGT
h -t 18.430662496 -s 12 -d -1 -p cbr -e 210 -c 2 -a 0 -i 5 -k AGT
+ -t 18.439062496 -s 12 -d -1 -p cbr -e 210 -c 2 -a 0 -i 6 -k AGT 
- -t 18.439062496 -s 12 -d -1 -p cbr -e 210 -c 2 -a 0 -i 6 -k AGT
h -t 18.439062496 -s 12 -d -1 -p cbr -e 210 -c 2 -a 0 -i 6 -k AGT
+ -t 18.447462496 -s 12 -d -1 -p cbr -e 210 -c 2 -a 0 -i 7 -k AGT 
- -t 18.447462496 -s 12 -d -1 -p cbr -e 210 -c 2 -a 0 -i 7 -k AGT
h -t 18.447462496 -s 12 -d -1 -p cbr -e 210 -c 2 -a 0 -i 7 -k AGT
+ -t 18.455862496 -s 12 -d -1 -p cbr -e 210 -c 2 -a 0 -i 8 -k AGT 
- -t 18.455862496 -s 12 -d -1 -p cbr -e 210 -c 2 -a 0 -i 8 -k AGT
h -t 18.455862496 -s 12 -d -1 -p cbr -e 210 -c 2 -a 0 -i 8 -k AGT
+ -t 18.464262496 -s 12 -d -1 -p cbr -e 210 -c 2 -a 0 -i 9 -k AGT 
- -t 18.464262496 -s 12 -d -1 -p cbr -e 210 -c 2 -a 0 -i 9 -k AGT
h -t 18.464262496 -s 12 -d -1 -p cbr -e 210 -c 2 -a 0 -i 9 -k AGT
+ -t 18.472662496 -s 12 -d -1 -p cbr -e 210 -c 2 -a 0 -i 10 -k AGT 
- -t 18.472662496 -s 12 -d -1 -p cbr -e 210 -c 2 -a 0 -i 10 -k AGT
h -t 18.472662496 -s 12 -d -1 -p cbr -e 210 -c 2 -a 0 -i 10 -k AGT
+ -t 18.481062496 -s 12 -d -1 -p cbr -e 210 -c 2 -a 0 -i 11 -k AGT 
- -t 18.481062496 -s 12 -d -1 -p cbr -e 210 -c 2 -a 0 -i 11 -k AGT
h -t 18.481062496 -s 12 -d -1 -p cbr -e 210 -c 2 -a 0 -i 11 -k AGT
+ -t 18.489462496 -s 12 -d -1 -p cbr -e 210 -c 2 -a 0 -i 12 -k AGT 
- -t 18.489462496 -s 12 -d -1 -p cbr -e 210 -c 2 -a 0 -i 12 -k AGT
h -t 18.489462496 -s 12 -d -1 -p cbr -e 210 -c 2 -a 0 -i 12 -k AGT
+ -t 18.497862496 -s 12 -d -1 -p cbr -e 210 -c 2 -a 0 -i 13 -k AGT 
- -t 18.497862496 -s 12 -d -1 -p cbr -e 210 -c 2 -a 0 -i 13 -k AGT
h -t 18.497862496 -s 12 -d -1 -p cbr -e 210 -c 2 -a 0 -i 13 -k AGT
+ -t 18.506262496 -s 12 -d -1 -p cbr -e 210 -c 2 -a 0 -i 14 -k AGT 
- -t 18.506262496 -s 12 -d -1 -p cbr -e 210 -c 2 -a 0 -i 14 -k AGT
h -t 18.506262496 -s 12 -d -1 -p cbr -e 210 -c 2 -a 0 -i 14 -k AGT
+ -t 18.514662496 -s 12 -d -1 -p cbr -e 210 -c 2 -a 0 -i 15 -k AGT 
- -t 18.514662496 -s 12 -d -1 -p cbr -e 210 -c 2 -a 0 -i 15 -k AGT
h -t 18.514662496 -s 12 -d -1 -p cbr -e 210 -c 2 -a 0 -i 15 -k AGT
+ -t 18.523062496 -s 12 -d -1 -p cbr -e 210 -c 2 -a 0 -i 16 -k AGT 
- -t 18.523062496 -s 12 -d -1 -p cbr -e 210 -c 2 -a 0 -i 16 -k AGT
h -t 18.523062496 -s 12 -d -1 -p cbr -e 210 -c 2 -a 0 -i 16 -k AGT
+ -t 18.531462496 -s 12 -d -1 -p cbr -e 210 -c 2 -a 0 -i 17 -k AGT 
- -t 18.531462496 -s 12 -d -1 -p cbr -e 210 -c 2 -a 0 -i 17 -k AGT
h -t 18.531462496 -s 12 -d -1 -p cbr -e 210 -c 2 -a 0 -i 17 -k AGT
+ -t 18.539862496 -s 12 -d -1 -p cbr -e 210 -c 2 -a 0 -i 18 -k AGT 
- -t 18.539862496 -s 12 -d -1 -p cbr -e 210 -c 2 -a 0 -i 18 -k AGT
h -t 18.539862496 -s 12 -d -1 -p cbr -e 210 -c 2 -a 0 -i 18 -k AGT
+ -t 18.548262496 -s 12 -d -1 -p cbr -e 210 -c 2 -a 0 -i 19 -k AGT 
- -t 18.548262496 -s 12 -d -1 -p cbr -e 210 -c 2 -a 0 -i 19 -k AGT
h -t 18.548262496 -s 12 -d -1 -p cbr -e 210 -c 2 -a 0 -i 19 -k AGT
+ -t 18.556662496 -s 12 -d -1 -p cbr -e 210 -c 2 -a 0 -i 20 -k AGT 
- -t 18.556662496 -s 12 -d -1 -p cbr -e 210 -c 2 -a 0 -i 20 -k AGT
h -t 18.556662496 -s 12 -d -1 -p cbr -e 210 -c 2 -a 0 -i 20 -k AGT
+ -t 18.565062496 -s 12 -d -1 -p cbr -e 210 -c 2 -a 0 -i 21 -k AGT 
- -t 18.565062496 -s 12 -d -1 -p cbr -e 210 -c 2 -a 0 -i 21 -k AGT
h -t 18.565062496 -s 12 -d -1 -p cbr -e 210 -c 2 -a 0 -i 21 -k AGT
r -t 18.565153667 -s 13 -d 13 -p cbr -e 230 -c 2 -a 0 -i 0 -k AGT
+ -t 18.573462496 -s 12 -d -1 -p cbr -e 210 -c 2 -a 0 -i 22 -k AGT 
- -t 18.573462496 -s 12 -d -1 -p cbr -e 210 -c 2 -a 0 -i 22 -k AGT
h -t 18.573462496 -s 12 -d -1 -p cbr -e 210 -c 2 -a 0 -i 22 -k AGT
+ -t 18.581862496 -s 12 -d -1 -p cbr -e 210 -c 2 -a 0 -i 23 -k AGT 
- -t 18.581862496 -s 12 -d -1 -p cbr -e 210 -c 2 -a 0 -i 23 -k AGT
h -t 18.581862496 -s 12 -d -1 -p cbr -e 210 -c 2 -a 0 -i 23 -k AGT
+ -t 18.590262496 -s 12 -d -1 -p cbr -e 210 -c 2 -a 0 -i 24 -k AGT 
- -t 18.590262496 -s 12 -d -1 -p cbr -e 210 -c 2 -a 0 -i 24 -k AGT
h -t 18.590262496 -s 12 -d -1 -p cbr -e 210 -c 2 -a 0 -i 24 -k AGT
r -t 18.595153667 -s 13 -d 13 -p cbr -e 230 -c 2 -a 0 -i 20 -k AGT
+ -t 18.598662496 -s 12 -d -1 -p cbr -e 210 -c 2 -a 0 -i 25 -k AGT 
- -t 18.598662496 -s 12 -d -1 -p cbr -e 210 -c 2 -a 0 -i 25 -k AGT
h -t 18.598662496 -s 12 -d -1 -p cbr -e 210 -c 2 -a 0 -i 25 -k AGT
+ -t 18.607062496 -s 12 -d -1 -p cbr -e 210 -c 2 -a 0 -i 26 -k AGT 
- -t 18.607062496 -s 12 -d -1 -p cbr -e 210 -c 2 -a 0 -i 26 -k AGT
h -t 18.607062496 -s 12 -d -1 -p cbr -e 210 -c 2 -a 0 -i 26 -k AGT
+ -t 18.615462496 -s 12 -d -1 -p cbr -e 210 -c 2 -a 0 -i 27 -k AGT 
- -t 18.615462496 -s 12 -d -1 -p cbr -e 210 -c 2 -a 0 -i 27 -k AGT
h -t 18.615462496 -s 12 -d -1 -p cbr -e 210 -c 2 -a 0 -i 27 -k AGT
+ -t 18.623862496 -s 12 -d -1 -p cbr -e 210 -c 2 -a 0 -i 28 -k AGT 
- -t 18.623862496 -s 12 -d -1 -p cbr -e 210 -c 2 -a 0 -i 28 -k AGT
h -t 18.623862496 -s 12 -d -1 -p cbr -e 210 -c 2 -a 0 -i 28 -k AGT
r -t 18.625153667 -s 13 -d 13 -p cbr -e 230 -c 2 -a 0 -i 1 -k AGT
+ -t 18.632262496 -s 12 -d -1 -p cbr -e 210 -c 2 -a 0 -i 29 -k AGT 
- -t 18.632262496 -s 12 -d -1 -p cbr -e 210 -c 2 -a 0 -i 29 -k AGT
h -t 18.632262496 -s 12 -d -1 -p cbr -e 210 -c 2 -a 0 -i 29 -k AGT
+ -t 18.640662496 -s 12 -d -1 -p cbr -e 210 -c 2 -a 0 -i 30 -k AGT 
- -t 18.640662496 -s 12 -d -1 -p cbr -e 210 -c 2 -a 0 -i 30 -k AGT
h -t 18.640662496 -s 12 -d -1 -p cbr -e 210 -c 2 -a 0 -i 30 -k AGT
+ -t 18.649062496 -s 12 -d -1 -p cbr -e 210 -c 2 -a 0 -i 31 -k AGT 
- -t 18.649062496 -s 12 -d -1 -p cbr -e 210 -c 2 -a 0 -i 31 -k AGT
h -t 18.649062496 -s 12 -d -1 -p cbr -e 210 -c 2 -a 0 -i 31 -k AGT
r -t 18.655153667 -s 13 -d 13 -p cbr -e 230 -c 2 -a 0 -i 21 -k AGT
+ -t 18.657462496 -s 12 -d -1 -p cbr -e 210 -c 2 -a 0 -i 32 -k AGT 
- -t 18.657462496 -s 12 -d -1 -p cbr -e 210 -c 2 -a 0 -i 32 -k AGT
h -t 18.657462496 -s 12 -d -1 -p cbr -e 210 -c 2 -a 0 -i 32 -k AGT
+ -t 18.665862496 -s 12 -d -1 -p cbr -e 210 -c 2 -a 0 -i 33 -k AGT 
- -t 18.665862496 -s 12 -d -1 -p cbr -e 210 -c 2 -a 0 -i 33 -k AGT
h -t 18.665862496 -s 12 -d -1 -p cbr -e 210 -c 2 -a 0 -i 33 -k AGT
+ -t 18.674262496 -s 12 -d -1 -p cbr -e 210 -c 2 -a 0 -i 34 -k AGT 
- -t 18.674262496 -s 12 -d -1 -p cbr -e 210 -c 2 -a 0 -i 34 -k AGT
h -t 18.674262496 -s 12 -d -1 -p cbr -e 210 -c 2 -a 0 -i 34 -k AGT
+ -t 18.682662496 -s 12 -d -1 -p cbr -e 210 -c 2 -a 0 -i 35 -k AGT 
- -t 18.682662496 -s 12 -d -1 -p cbr -e 210 -c 2 -a 0 -i 35 -k AGT
h -t 18.682662496 -s 12 -d -1 -p cbr -e 210 -c 2 -a 0 -i 35 -k AGT
r -t 18.685153667 -s 13 -d 13 -p cbr -e 230 -c 2 -a 0 -i 2 -k AGT
+ -t 18.691062496 -s 12 -d -1 -p cbr -e 210 -c 2 -a 0 -i 36 -k AGT 
- -t 18.691062496 -s 12 -d -1 -p cbr -e 210 -c 2 -a 0 -i 36 -k AGT
h -t 18.691062496 -s 12 -d -1 -p cbr -e 210 -c 2 -a 0 -i 36 -k AGT
+ -t 18.699462496 -s 12 -d -1 -p cbr -e 210 -c 2 -a 0 -i 37 -k AGT 
- -t 18.699462496 -s 12 -d -1 -p cbr -e 210 -c 2 -a 0 -i 37 -k AGT
h -t 18.699462496 -s 12 -d -1 -p cbr -e 210 -c 2 -a 0 -i 37 -k AGT
+ -t 18.707862496 -s 12 -d -1 -p cbr -e 210 -c 2 -a 0 -i 38 -k AGT 
- -t 18.707862496 -s 12 -d -1 -p cbr -e 210 -c 2 -a 0 -i 38 -k AGT
h -t 18.707862496 -s 12 -d -1 -p cbr -e 210 -c 2 -a 0 -i 38 -k AGT
r -t 18.715153667 -s 13 -d 13 -p cbr -e 230 -c 2 -a 0 -i 22 -k AGT
+ -t 18.716262496 -s 12 -d -1 -p cbr -e 210 -c 2 -a 0 -i 39 -k AGT 
- -t 18.716262496 -s 12 -d -1 -p cbr -e 210 -c 2 -a 0 -i 39 -k AGT
h -t 18.716262496 -s 12 -d -1 -p cbr -e 210 -c 2 -a 0 -i 39 -k AGT
+ -t 18.724662496 -s 12 -d -1 -p cbr -e 210 -c 2 -a 0 -i 40 -k AGT 
- -t 18.724662496 -s 12 -d -1 -p cbr -e 210 -c 2 -a 0 -i 40 -k AGT
h -t 18.724662496 -s 12 -d -1 -p cbr -e 210 -c 2 -a 0 -i 40 -k AGT
+ -t 18.733062496 -s 12 -d -1 -p cbr -e 210 -c 2 -a 0 -i 41 -k AGT 
- -t 18.733062496 -s 12 -d -1 -p cbr -e 210 -c 2 -a 0 -i 41 -k AGT
h -t 18.733062496 -s 12 -d -1 -p cbr -e 210 -c 2 -a 0 -i 41 -k AGT
+ -t 18.741462496 -s 12 -d -1 -p cbr -e 210 -c 2 -a 0 -i 42 -k AGT 
- -t 18.741462496 -s 12 -d -1 -p cbr -e 210 -c 2 -a 0 -i 42 -k AGT
h -t 18.741462496 -s 12 -d -1 -p cbr -e 210 -c 2 -a 0 -i 42 -k AGT
r -t 18.745153667 -s 13 -d 13 -p cbr -e 230 -c 2 -a 0 -i 23 -k AGT
+ -t 18.749862496 -s 12 -d -1 -p cbr -e 210 -c 2 -a 0 -i 43 -k AGT 
- -t 18.749862496 -s 12 -d -1 -p cbr -e 210 -c 2 -a 0 -i 43 -k AGT
h -t 18.749862496 -s 12 -d -1 -p cbr -e 210 -c 2 -a 0 -i 43 -k AGT
+ -t 18.758262496 -s 12 -d -1 -p cbr -e 210 -c 2 -a 0 -i 44 -k AGT 
- -t 18.758262496 -s 12 -d -1 -p cbr -e 210 -c 2 -a 0 -i 44 -k AGT
h -t 18.758262496 -s 12 -d -1 -p cbr -e 210 -c 2 -a 0 -i 44 -k AGT
+ -t 18.766662496 -s 12 -d -1 -p cbr -e 210 -c 2 -a 0 -i 45 -k AGT 
- -t 18.766662496 -s 12 -d -1 -p cbr -e 210 -c 2 -a 0 -i 45 -k AGT
h -t 18.766662496 -s 12 -d -1 -p cbr -e 210 -c 2 -a 0 -i 45 -k AGT
+ -t 18.775062496 -s 12 -d -1 -p cbr -e 210 -c 2 -a 0 -i 46 -k AGT 
- -t 18.775062496 -s 12 -d -1 -p cbr -e 210 -c 2 -a 0 -i 46 -k AGT
h -t 18.775062496 -s 12 -d -1 -p cbr -e 210 -c 2 -a 0 -i 46 -k AGT
r -t 18.775153667 -s 13 -d 13 -p cbr -e 230 -c 2 -a 0 -i 3 -k AGT
+ -t 18.783462496 -s 12 -d -1 -p cbr -e 210 -c 2 -a 0 -i 47 -k AGT 
- -t 18.783462496 -s 12 -d -1 -p cbr -e 210 -c 2 -a 0 -i 47 -k AGT
h -t 18.783462496 -s 12 -d -1 -p cbr -e 210 -c 2 -a 0 -i 47 -k AGT
+ -t 18.791862496 -s 12 -d -1 -p cbr -e 210 -c 2 -a 0 -i 48 -k AGT 
- -t 18.791862496 -s 12 -d -1 -p cbr -e 210 -c 2 -a 0 -i 48 -k AGT
h -t 18.791862496 -s 12 -d -1 -p cbr -e 210 -c 2 -a 0 -i 48 -k AGT
+ -t 18.800262496 -s 12 -d -1 -p cbr -e 210 -c 2 -a 0 -i 49 -k AGT 
- -t 18.800262496 -s 12 -d -1 -p cbr -e 210 -c 2 -a 0 -i 49 -k AGT
h -t 18.800262496 -s 12 -d -1 -p cbr -e 210 -c 2 -a 0 -i 49 -k AGT
r -t 18.805153667 -s 13 -d 13 -p cbr -e 230 -c 2 -a 0 -i 24 -k AGT
+ -t 18.808662496 -s 12 -d -1 -p cbr -e 210 -c 2 -a 0 -i 50 -k AGT 
- -t 18.808662496 -s 12 -d -1 -p cbr -e 210 -c 2 -a 0 -i 50 -k AGT
h -t 18.808662496 -s 12 -d -1 -p cbr -e 210 -c 2 -a 0 -i 50 -k AGT
+ -t 18.817062496 -s 12 -d -1 -p cbr -e 210 -c 2 -a 0 -i 51 -k AGT 
- -t 18.817062496 -s 12 -d -1 -p cbr -e 210 -c 2 -a 0 -i 51 -k AGT
h -t 18.817062496 -s 12 -d -1 -p cbr -e 210 -c 2 -a 0 -i 51 -k AGT
+ -t 18.825462496 -s 12 -d -1 -p cbr -e 210 -c 2 -a 0 -i 52 -k AGT 
- -t 18.825462496 -s 12 -d -1 -p cbr -e 210 -c 2 -a 0 -i 52 -k AGT
h -t 18.825462496 -s 12 -d -1 -p cbr -e 210 -c 2 -a 0 -i 52 -k AGT
+ -t 18.833862496 -s 12 -d -1 -p cbr -e 210 -c 2 -a 0 -i 53 -k AGT 
- -t 18.833862496 -s 12 -d -1 -p cbr -e 210 -c 2 -a 0 -i 53 -k AGT
h -t 18.833862496 -s 12 -d -1 -p cbr -e 210 -c 2 -a 0 -i 53 -k AGT
r -t 18.835153667 -s 13 -d 13 -p cbr -e 230 -c 2 -a 0 -i 4 -k AGT
+ -t 18.842262496 -s 12 -d -1 -p cbr -e 210 -c 2 -a 0 -i 54 -k AGT 
- -t 18.842262496 -s 12 -d -1 -p cbr -e 210 -c 2 -a 0 -i 54 -k AGT
h -t 18.842262496 -s 12 -d -1 -p cbr -e 210 -c 2 -a 0 -i 54 -k AGT
+ -t 18.850662496 -s 12 -d -1 -p cbr -e 210 -c 2 -a 0 -i 55 -k AGT 
- -t 18.850662496 -s 12 -d -1 -p cbr -e 210 -c 2 -a 0 -i 55 -k AGT
h -t 18.850662496 -s 12 -d -1 -p cbr -e 210 -c 2 -a 0 -i 55 -k AGT
+ -t 18.859062496 -s 12 -d -1 -p cbr -e 210 -c 2 -a 0 -i 56 -k AGT 
- -t 18.859062496 -s 12 -d -1 -p cbr -e 210 -c 2 -a 0 -i 56 -k AGT
h -t 18.859062496 -s 12 -d -1 -p cbr -e 210 -c 2 -a 0 -i 56 -k AGT
r -t 18.865153667 -s 13 -d 13 -p cbr -e 230 -c 2 -a 0 -i 25 -k AGT
+ -t 18.867462496 -s 12 -d -1 -p cbr -e 210 -c 2 -a 0 -i 57 -k AGT 
- -t 18.867462496 -s 12 -d -1 -p cbr -e 210 -c 2 -a 0 -i 57 -k AGT
h -t 18.867462496 -s 12 -d -1 -p cbr -e 210 -c 2 -a 0 -i 57 -k AGT
+ -t 18.875862496 -s 12 -d -1 -p cbr -e 210 -c 2 -a 0 -i 58 -k AGT 
- -t 18.875862496 -s 12 -d -1 -p cbr -e 210 -c 2 -a 0 -i 58 -k AGT
h -t 18.875862496 -s 12 -d -1 -p cbr -e 210 -c 2 -a 0 -i 58 -k AGT
+ -t 18.884262496 -s 12 -d -1 -p cbr -e 210 -c 2 -a 0 -i 59 -k AGT 
- -t 18.884262496 -s 12 -d -1 -p cbr -e 210 -c 2 -a 0 -i 59 -k AGT
h -t 18.884262496 -s 12 -d -1 -p cbr -e 210 -c 2 -a 0 -i 59 -k AGT
+ -t 18.892662496 -s 12 -d -1 -p cbr -e 210 -c 2 -a 0 -i 60 -k AGT 
- -t 18.892662496 -s 12 -d -1 -p cbr -e 210 -c 2 -a 0 -i 60 -k AGT
h -t 18.892662496 -s 12 -d -1 -p cbr -e 210 -c 2 -a 0 -i 60 -k AGT
r -t 18.895153667 -s 13 -d 13 -p cbr -e 230 -c 2 -a 0 -i 5 -k AGT
+ -t 18.901062496 -s 12 -d -1 -p cbr -e 210 -c 2 -a 0 -i 61 -k AGT 
- -t 18.901062496 -s 12 -d -1 -p cbr -e 210 -c 2 -a 0 -i 61 -k AGT
h -t 18.901062496 -s 12 -d -1 -p cbr -e 210 -c 2 -a 0 -i 61 -k AGT
+ -t 18.909462496 -s 12 -d -1 -p cbr -e 210 -c 2 -a 0 -i 62 -k AGT 
- -t 18.909462496 -s 12 -d -1 -p cbr -e 210 -c 2 -a 0 -i 62 -k AGT
h -t 18.909462496 -s 12 -d -1 -p cbr -e 210 -c 2 -a 0 -i 62 -k AGT
d -t 18.909487496 -s 12 -d 13 -p cbr -e 230 -c 2 -a 0 -i 62 -k IFQ
+ -t 18.917862496 -s 12 -d -1 -p cbr -e 210 -c 2 -a 0 -i 63 -k AGT 
- -t 18.917862496 -s 12 -d -1 -p cbr -e 210 -c 2 -a 0 -i 63 -k AGT
h -t 18.917862496 -s 12 -d -1 -p cbr -e 210 -c 2 -a 0 -i 63 -k AGT
d -t 18.917887496 -s 12 -d 13 -p cbr -e 230 -c 2 -a 0 -i 63 -k IFQ
r -t 18.925153667 -s 13 -d 13 -p cbr -e 230 -c 2 -a 0 -i 26 -k AGT
+ -t 18.926262496 -s 12 -d -1 -p cbr -e 210 -c 2 -a 0 -i 64 -k AGT 
- -t 18.926262496 -s 12 -d -1 -p cbr -e 210 -c 2 -a 0 -i 64 -k AGT
h -t 18.926262496 -s 12 -d -1 -p cbr -e 210 -c 2 -a 0 -i 64 -k AGT
+ -t 18.934662496 -s 12 -d -1 -p cbr -e 210 -c 2 -a 0 -i 65 -k AGT 
- -t 18.934662496 -s 12 -d -1 -p cbr -e 210 -c 2 -a 0 -i 65 -k AGT
h -t 18.934662496 -s 12 -d -1 -p cbr -e 210 -c 2 -a 0 -i 65 -k AGT
d -t 18.934687496 -s 12 -d 13 -p cbr -e 230 -c 2 -a 0 -i 65 -k IFQ
+ -t 18.943062496 -s 12 -d -1 -p cbr -e 210 -c 2 -a 0 -i 66 -k AGT 
- -t 18.943062496 -s 12 -d -1 -p cbr -e 210 -c 2 -a 0 -i 66 -k AGT
h -t 18.943062496 -s 12 -d -1 -p cbr -e 210 -c 2 -a 0 -i 66 -k AGT
d -t 18.943087496 -s 12 -d 13 -p cbr -e 230 -c 2 -a 0 -i 66 -k IFQ
+ -t 18.951462496 -s 12 -d -1 -p cbr -e 210 -c 2 -a 0 -i 67 -k AGT 
- -t 18.951462496 -s 12 -d -1 -p cbr -e 210 -c 2 -a 0 -i 67 -k AGT
h -t 18.951462496 -s 12 -d -1 -p cbr -e 210 -c 2 -a 0 -i 67 -k AGT
d -t 18.951487496 -s 12 -d 13 -p cbr -e 230 -c 2 -a 0 -i 67 -k IFQ
r -t 18.955153667 -s 13 -d 13 -p cbr -e 230 -c 2 -a 0 -i 6 -k AGT
+ -t 18.959862496 -s 12 -d -1 -p cbr -e 210 -c 2 -a 0 -i 68 -k AGT 
- -t 18.959862496 -s 12 -d -1 -p cbr -e 210 -c 2 -a 0 -i 68 -k AGT
h -t 18.959862496 -s 12 -d -1 -p cbr -e 210 -c 2 -a 0 -i 68 -k AGT
d -t 18.967700391 -s 12 -d 13 -p cbr -e 230 -c 2 -a 0 -i 68 -k IFQ
+ -t 18.968262496 -s 12 -d -1 -p cbr -e 210 -c 2 -a 0 -i 69 -k AGT 
- -t 18.968262496 -s 12 -d -1 -p cbr -e 210 -c 2 -a 0 -i 69 -k AGT
h -t 18.968262496 -s 12 -d -1 -p cbr -e 210 -c 2 -a 0 -i 69 -k AGT
d -t 18.968287496 -s 12 -d 13 -p cbr -e 230 -c 2 -a 0 -i 69 -k IFQ
+ -t 18.976662496 -s 12 -d -1 -p cbr -e 210 -c 2 -a 0 -i 70 -k AGT 
- -t 18.976662496 -s 12 -d -1 -p cbr -e 210 -c 2 -a 0 -i 70 -k AGT
h -t 18.976662496 -s 12 -d -1 -p cbr -e 210 -c 2 -a 0 -i 70 -k AGT
d -t 18.976687496 -s 12 -d 13 -p cbr -e 230 -c 2 -a 0 -i 70 -k IFQ
+ -t 18.985062496 -s 12 -d -1 -p cbr -e 210 -c 2 -a 0 -i 71 -k AGT 
- -t 18.985062496 -s 12 -d -1 -p cbr -e 210 -c 2 -a 0 -i 71 -k AGT
h -t 18.985062496 -s 12 -d -1 -p cbr -e 210 -c 2 -a 0 -i 71 -k AGT
d -t 18.985087496 -s 12 -d 13 -p cbr -e 230 -c 2 -a 0 -i 71 -k IFQ
r -t 18.985153667 -s 13 -d 13 -p cbr -e 230 -c 2 -a 0 -i 27 -k AGT
+ -t 18.993462496 -s 12 -d -1 -p cbr -e 210 -c 2 -a 0 -i 72 -k AGT 
- -t 18.993462496 -s 12 -d -1 -p cbr -e 210 -c 2 -a 0 -i 72 -k AGT
h -t 18.993462496 -s 12 -d -1 -p cbr -e 210 -c 2 -a 0 -i 72 -k AGT
+ -t 19.001862496 -s 12 -d -1 -p cbr -e 210 -c 2 -a 0 -i 73 -k AGT 
- -t 19.001862496 -s 12 -d -1 -p cbr -e 210 -c 2 -a 0 -i 73 -k AGT
h -t 19.001862496 -s 12 -d -1 -p cbr -e 210 -c 2 -a 0 -i 73 -k AGT
+ -t 19.010262496 -s 12 -d -1 -p cbr -e 210 -c 2 -a 0 -i 74 -k AGT 
- -t 19.010262496 -s 12 -d -1 -p cbr -e 210 -c 2 -a 0 -i 74 -k AGT
h -t 19.010262496 -s 12 -d -1 -p cbr -e 210 -c 2 -a 0 -i 74 -k AGT
d -t 19.010287496 -s 12 -d 13 -p cbr -e 230 -c 2 -a 0 -i 74 -k IFQ
r -t 19.015153667 -s 13 -d 13 -p cbr -e 230 -c 2 -a 0 -i 7 -k AGT
+ -t 19.018662496 -s 12 -d -1 -p cbr -e 210 -c 2 -a 0 -i 75 -k AGT 
- -t 19.018662496 -s 12 -d -1 -p cbr -e 210 -c 2 -a 0 -i 75 -k AGT
h -t 19.018662496 -s 12 -d -1 -p cbr -e 210 -c 2 -a 0 -i 75 -k AGT
+ -t 19.027062496 -s 12 -d -1 -p cbr -e 210 -c 2 -a 0 -i 76 -k AGT 
- -t 19.027062496 -s 12 -d -1 -p cbr -e 210 -c 2 -a 0 -i 76 -k AGT
h -t 19.027062496 -s 12 -d -1 -p cbr -e 210 -c 2 -a 0 -i 76 -k AGT
d -t 19.027087496 -s 12 -d 13 -p cbr -e 230 -c 2 -a 0 -i 76 -k IFQ
+ -t 19.035462496 -s 12 -d -1 -p cbr -e 210 -c 2 -a 0 -i 77 -k AGT 
- -t 19.035462496 -s 12 -d -1 -p cbr -e 210 -c 2 -a 0 -i 77 -k AGT
h -t 19.035462496 -s 12 -d -1 -p cbr -e 210 -c 2 -a 0 -i 77 -k AGT
d -t 19.035487496 -s 12 -d 13 -p cbr -e 230 -c 2 -a 0 -i 77 -k IFQ
+ -t 19.043862496 -s 12 -d -1 -p cbr -e 210 -c 2 -a 0 -i 78 -k AGT 
- -t 19.043862496 -s 12 -d -1 -p cbr -e 210 -c 2 -a 0 -i 78 -k AGT
h -t 19.043862496 -s 12 -d -1 -p cbr -e 210 -c 2 -a 0 -i 78 -k AGT
d -t 19.043887496 -s 12 -d 13 -p cbr -e 230 -c 2 -a 0 -i 78 -k IFQ
r -t 19.045153667 -s 13 -d 13 -p cbr -e 230 -c 2 -a 0 -i 28 -k AGT
+ -t 19.052262496 -s 12 -d -1 -p cbr -e 210 -c 2 -a 0 -i 79 -k AGT 
- -t 19.052262496 -s 12 -d -1 -p cbr -e 210 -c 2 -a 0 -i 79 -k AGT
h -t 19.052262496 -s 12 -d -1 -p cbr -e 210 -c 2 -a 0 -i 79 -k AGT
+ -t 19.060662496 -s 12 -d -1 -p cbr -e 210 -c 2 -a 0 -i 80 -k AGT 
- -t 19.060662496 -s 12 -d -1 -p cbr -e 210 -c 2 -a 0 -i 80 -k AGT
h -t 19.060662496 -s 12 -d -1 -p cbr -e 210 -c 2 -a 0 -i 80 -k AGT
d -t 19.060687496 -s 12 -d 13 -p cbr -e 230 -c 2 -a 0 -i 80 -k IFQ
+ -t 19.069062496 -s 12 -d -1 -p cbr -e 210 -c 2 -a 0 -i 81 -k AGT 
- -t 19.069062496 -s 12 -d -1 -p cbr -e 210 -c 2 -a 0 -i 81 -k AGT
h -t 19.069062496 -s 12 -d -1 -p cbr -e 210 -c 2 -a 0 -i 81 -k AGT
d -t 19.069087496 -s 12 -d 13 -p cbr -e 230 -c 2 -a 0 -i 81 -k IFQ
r -t 19.075153667 -s 13 -d 13 -p cbr -e 230 -c 2 -a 0 -i 29 -k AGT
+ -t 19.077462496 -s 12 -d -1 -p cbr -e 210 -c 2 -a 0 -i 82 -k AGT 
- -t 19.077462496 -s 12 -d -1 -p cbr -e 210 -c 2 -a 0 -i 82 -k AGT
h -t 19.077462496 -s 12 -d -1 -p cbr -e 210 -c 2 -a 0 -i 82 -k AGT
+ -t 19.085862496 -s 12 -d -1 -p cbr -e 210 -c 2 -a 0 -i 83 -k AGT 
- -t 19.085862496 -s 12 -d -1 -p cbr -e 210 -c 2 -a 0 -i 83 -k AGT
h -t 19.085862496 -s 12 -d -1 -p cbr -e 210 -c 2 -a 0 -i 83 -k AGT
d -t 19.085887496 -s 12 -d 13 -p cbr -e 230 -c 2 -a 0 -i 83 -k IFQ
+ -t 19.094262496 -s 12 -d -1 -p cbr -e 210 -c 2 -a 0 -i 84 -k AGT 
- -t 19.094262496 -s 12 -d -1 -p cbr -e 210 -c 2 -a 0 -i 84 -k AGT
h -t 19.094262496 -s 12 -d -1 -p cbr -e 210 -c 2 -a 0 -i 84 -k AGT
d -t 19.094287496 -s 12 -d 13 -p cbr -e 230 -c 2 -a 0 -i 84 -k IFQ
+ -t 19.102662496 -s 12 -d -1 -p cbr -e 210 -c 2 -a 0 -i 85 -k AGT 
- -t 19.102662496 -s 12 -d -1 -p cbr -e 210 -c 2 -a 0 -i 85 -k AGT
h -t 19.102662496 -s 12 -d -1 -p cbr -e 210 -c 2 -a 0 -i 85 -k AGT
d -t 19.102687496 -s 12 -d 13 -p cbr -e 230 -c 2 -a 0 -i 85 -k IFQ
r -t 19.105153667 -s 13 -d 13 -p cbr -e 230 -c 2 -a 0 -i 8 -k AGT
+ -t 19.111062496 -s 12 -d -1 -p cbr -e 210 -c 2 -a 0 -i 86 -k AGT 
- -t 19.111062496 -s 12 -d -1 -p cbr -e 210 -c 2 -a 0 -i 86 -k AGT
h -t 19.111062496 -s 12 -d -1 -p cbr -e 210 -c 2 -a 0 -i 86 -k AGT
+ -t 19.119462496 -s 12 -d -1 -p cbr -e 210 -c 2 -a 0 -i 87 -k AGT 
- -t 19.119462496 -s 12 -d -1 -p cbr -e 210 -c 2 -a 0 -i 87 -k AGT
h -t 19.119462496 -s 12 -d -1 -p cbr -e 210 -c 2 -a 0 -i 87 -k AGT
d -t 19.119487496 -s 12 -d 13 -p cbr -e 230 -c 2 -a 0 -i 87 -k IFQ
+ -t 19.127862496 -s 12 -d -1 -p cbr -e 210 -c 2 -a 0 -i 88 -k AGT 
- -t 19.127862496 -s 12 -d -1 -p cbr -e 210 -c 2 -a 0 -i 88 -k AGT
h -t 19.127862496 -s 12 -d -1 -p cbr -e 210 -c 2 -a 0 -i 88 -k AGT
d -t 19.127887496 -s 12 -d 13 -p cbr -e 230 -c 2 -a 0 -i 88 -k IFQ
r -t 19.135153667 -s 13 -d 13 -p cbr -e 230 -c 2 -a 0 -i 30 -k AGT
+ -t 19.136262496 -s 12 -d -1 -p cbr -e 210 -c 2 -a 0 -i 89 -k AGT 
- -t 19.136262496 -s 12 -d -1 -p cbr -e 210 -c 2 -a 0 -i 89 -k AGT
h -t 19.136262496 -s 12 -d -1 -p cbr -e 210 -c 2 -a 0 -i 89 -k AGT
+ -t 19.144662496 -s 12 -d -1 -p cbr -e 210 -c 2 -a 0 -i 90 -k AGT 
- -t 19.144662496 -s 12 -d -1 -p cbr -e 210 -c 2 -a 0 -i 90 -k AGT
h -t 19.144662496 -s 12 -d -1 -p cbr -e 210 -c 2 -a 0 -i 90 -k AGT
d -t 19.144687496 -s 12 -d 13 -p cbr -e 230 -c 2 -a 0 -i 90 -k IFQ
+ -t 19.153062496 -s 12 -d -1 -p cbr -e 210 -c 2 -a 0 -i 91 -k AGT 
- -t 19.153062496 -s 12 -d -1 -p cbr -e 210 -c 2 -a 0 -i 91 -k AGT
h -t 19.153062496 -s 12 -d -1 -p cbr -e 210 -c 2 -a 0 -i 91 -k AGT
d -t 19.153087496 -s 12 -d 13 -p cbr -e 230 -c 2 -a 0 -i 91 -k IFQ
+ -t 19.161462496 -s 12 -d -1 -p cbr -e 210 -c 2 -a 0 -i 92 -k AGT 
- -t 19.161462496 -s 12 -d -1 -p cbr -e 210 -c 2 -a 0 -i 92 -k AGT
h -t 19.161462496 -s 12 -d -1 -p cbr -e 210 -c 2 -a 0 -i 92 -k AGT
d -t 19.161487496 -s 12 -d 13 -p cbr -e 230 -c 2 -a 0 -i 92 -k IFQ
r -t 19.165153667 -s 13 -d 13 -p cbr -e 230 -c 2 -a 0 -i 9 -k AGT
+ -t 19.169862496 -s 12 -d -1 -p cbr -e 210 -c 2 -a 0 -i 93 -k AGT 
- -t 19.169862496 -s 12 -d -1 -p cbr -e 210 -c 2 -a 0 -i 93 -k AGT
h -t 19.169862496 -s 12 -d -1 -p cbr -e 210 -c 2 -a 0 -i 93 -k AGT
+ -t 19.178262496 -s 12 -d -1 -p cbr -e 210 -c 2 -a 0 -i 94 -k AGT 
- -t 19.178262496 -s 12 -d -1 -p cbr -e 210 -c 2 -a 0 -i 94 -k AGT
h -t 19.178262496 -s 12 -d -1 -p cbr -e 210 -c 2 -a 0 -i 94 -k AGT
d -t 19.178287496 -s 12 -d 13 -p cbr -e 230 -c 2 -a 0 -i 94 -k IFQ
+ -t 19.186662496 -s 12 -d -1 -p cbr -e 210 -c 2 -a 0 -i 95 -k AGT 
- -t 19.186662496 -s 12 -d -1 -p cbr -e 210 -c 2 -a 0 -i 95 -k AGT
h -t 19.186662496 -s 12 -d -1 -p cbr -e 210 -c 2 -a 0 -i 95 -k AGT
d -t 19.186687496 -s 12 -d 13 -p cbr -e 230 -c 2 -a 0 -i 95 -k IFQ
+ -t 19.195062496 -s 12 -d -1 -p cbr -e 210 -c 2 -a 0 -i 96 -k AGT 
- -t 19.195062496 -s 12 -d -1 -p cbr -e 210 -c 2 -a 0 -i 96 -k AGT
h -t 19.195062496 -s 12 -d -1 -p cbr -e 210 -c 2 -a 0 -i 96 -k AGT
d -t 19.195087496 -s 12 -d 13 -p cbr -e 230 -c 2 -a 0 -i 96 -k IFQ
r -t 19.195153667 -s 13 -d 13 -p cbr -e 230 -c 2 -a 0 -i 31 -k AGT
+ -t 19.203462496 -s 12 -d -1 -p cbr -e 210 -c 2 -a 0 -i 97 -k AGT 
- -t 19.203462496 -s 12 -d -1 -p cbr -e 210 -c 2 -a 0 -i 97 -k AGT
h -t 19.203462496 -s 12 -d -1 -p cbr -e 210 -c 2 -a 0 -i 97 -k AGT
+ -t 19.211862496 -s 12 -d -1 -p cbr -e 210 -c 2 -a 0 -i 98 -k AGT 
- -t 19.211862496 -s 12 -d -1 -p cbr -e 210 -c 2 -a 0 -i 98 -k AGT
h -t 19.211862496 -s 12 -d -1 -p cbr -e 210 -c 2 -a 0 -i 98 -k AGT
d -t 19.211887496 -s 12 -d 13 -p cbr -e 230 -c 2 -a 0 -i 98 -k IFQ
+ -t 19.220262496 -s 12 -d -1 -p cbr -e 210 -c 2 -a 0 -i 99 -k AGT 
- -t 19.220262496 -s 12 -d -1 -p cbr -e 210 -c 2 -a 0 -i 99 -k AGT
h -t 19.220262496 -s 12 -d -1 -p cbr -e 210 -c 2 -a 0 -i 99 -k AGT
d -t 19.220287496 -s 12 -d 13 -p cbr -e 230 -c 2 -a 0 -i 99 -k IFQ
r -t 19.225153667 -s 13 -d 13 -p cbr -e 230 -c 2 -a 0 -i 10 -k AGT
+ -t 19.228662496 -s 12 -d -1 -p cbr -e 210 -c 2 -a 0 -i 100 -k AGT 
- -t 19.228662496 -s 12 -d -1 -p cbr -e 210 -c 2 -a 0 -i 100 -k AGT
h -t 19.228662496 -s 12 -d -1 -p cbr -e 210 -c 2 -a 0 -i 100 -k AGT
+ -t 19.237062496 -s 12 -d -1 -p cbr -e 210 -c 2 -a 0 -i 101 -k AGT 
- -t 19.237062496 -s 12 -d -1 -p cbr -e 210 -c 2 -a 0 -i 101 -k AGT
h -t 19.237062496 -s 12 -d -1 -p cbr -e 210 -c 2 -a 0 -i 101 -k AGT
d -t 19.237087496 -s 12 -d 13 -p cbr -e 230 -c 2 -a 0 -i 101 -k IFQ
+ -t 19.245462496 -s 12 -d -1 -p cbr -e 210 -c 2 -a 0 -i 102 -k AGT 
- -t 19.245462496 -s 12 -d -1 -p cbr -e 210 -c 2 -a 0 -i 102 -k AGT
h -t 19.245462496 -s 12 -d -1 -p cbr -e 210 -c 2 -a 0 -i 102 -k AGT
d -t 19.245487496 -s 12 -d 13 -p cbr -e 230 -c 2 -a 0 -i 102 -k IFQ
+ -t 19.253862496 -s 12 -d -1 -p cbr -e 210 -c 2 -a 0 -i 103 -k AGT 
- -t 19.253862496 -s 12 -d -1 -p cbr -e 210 -c 2 -a 0 -i 103 -k AGT
h -t 19.253862496 -s 12 -d -1 -p cbr -e 210 -c 2 -a 0 -i 103 -k AGT
d -t 19.253887496 -s 12 -d 13 -p cbr -e 230 -c 2 -a 0 -i 103 -k IFQ
r -t 19.255153667 -s 13 -d 13 -p cbr -e 230 -c 2 -a 0 -i 32 -k AGT
+ -t 19.262262496 -s 12 -d -1 -p cbr -e 210 -c 2 -a 0 -i 104 -k AGT 
- -t 19.262262496 -s 12 -d -1 -p cbr -e 210 -c 2 -a 0 -i 104 -k AGT
h -t 19.262262496 -s 12 -d -1 -p cbr -e 210 -c 2 -a 0 -i 104 -k AGT
+ -t 19.270662496 -s 12 -d -1 -p cbr -e 210 -c 2 -a 0 -i 105 -k AGT 
- -t 19.270662496 -s 12 -d -1 -p cbr -e 210 -c 2 -a 0 -i 105 -k AGT
h -t 19.270662496 -s 12 -d -1 -p cbr -e 210 -c 2 -a 0 -i 105 -k AGT
d -t 19.270687496 -s 12 -d 13 -p cbr -e 230 -c 2 -a 0 -i 105 -k IFQ
+ -t 19.279062496 -s 12 -d -1 -p cbr -e 210 -c 2 -a 0 -i 106 -k AGT 
- -t 19.279062496 -s 12 -d -1 -p cbr -e 210 -c 2 -a 0 -i 106 -k AGT
h -t 19.279062496 -s 12 -d -1 -p cbr -e 210 -c 2 -a 0 -i 106 -k AGT
d -t 19.279087496 -s 12 -d 13 -p cbr -e 230 -c 2 -a 0 -i 106 -k IFQ
r -t 19.285153667 -s 13 -d 13 -p cbr -e 230 -c 2 -a 0 -i 11 -k AGT
+ -t 19.287462496 -s 12 -d -1 -p cbr -e 210 -c 2 -a 0 -i 107 -k AGT 
- -t 19.287462496 -s 12 -d -1 -p cbr -e 210 -c 2 -a 0 -i 107 -k AGT
h -t 19.287462496 -s 12 -d -1 -p cbr -e 210 -c 2 -a 0 -i 107 -k AGT
+ -t 19.295862496 -s 12 -d -1 -p cbr -e 210 -c 2 -a 0 -i 108 -k AGT 
- -t 19.295862496 -s 12 -d -1 -p cbr -e 210 -c 2 -a 0 -i 108 -k AGT
h -t 19.295862496 -s 12 -d -1 -p cbr -e 210 -c 2 -a 0 -i 108 -k AGT
d -t 19.295887496 -s 12 -d 13 -p cbr -e 230 -c 2 -a 0 -i 108 -k IFQ
+ -t 19.304262496 -s 12 -d -1 -p cbr -e 210 -c 2 -a 0 -i 109 -k AGT 
- -t 19.304262496 -s 12 -d -1 -p cbr -e 210 -c 2 -a 0 -i 109 -k AGT
h -t 19.304262496 -s 12 -d -1 -p cbr -e 210 -c 2 -a 0 -i 109 -k AGT
d -t 19.304287496 -s 12 -d 13 -p cbr -e 230 -c 2 -a 0 -i 109 -k IFQ
+ -t 19.312662496 -s 12 -d -1 -p cbr -e 210 -c 2 -a 0 -i 110 -k AGT 
- -t 19.312662496 -s 12 -d -1 -p cbr -e 210 -c 2 -a 0 -i 110 -k AGT
h -t 19.312662496 -s 12 -d -1 -p cbr -e 210 -c 2 -a 0 -i 110 -k AGT
d -t 19.312687496 -s 12 -d 13 -p cbr -e 230 -c 2 -a 0 -i 110 -k IFQ
r -t 19.315153667 -s 13 -d 13 -p cbr -e 230 -c 2 -a 0 -i 33 -k AGT
+ -t 19.321062496 -s 12 -d -1 -p cbr -e 210 -c 2 -a 0 -i 111 -k AGT 
- -t 19.321062496 -s 12 -d -1 -p cbr -e 210 -c 2 -a 0 -i 111 -k AGT
h -t 19.321062496 -s 12 -d -1 -p cbr -e 210 -c 2 -a 0 -i 111 -k AGT
+ -t 19.329462496 -s 12 -d -1 -p cbr -e 210 -c 2 -a 0 -i 112 -k AGT 
- -t 19.329462496 -s 12 -d -1 -p cbr -e 210 -c 2 -a 0 -i 112 -k AGT
h -t 19.329462496 -s 12 -d -1 -p cbr -e 210 -c 2 -a 0 -i 112 -k AGT
d -t 19.329487496 -s 12 -d 13 -p cbr -e 230 -c 2 -a 0 -i 112 -k IFQ
+ -t 19.337862496 -s 12 -d -1 -p cbr -e 210 -c 2 -a 0 -i 113 -k AGT 
- -t 19.337862496 -s 12 -d -1 -p cbr -e 210 -c 2 -a 0 -i 113 -k AGT
h -t 19.337862496 -s 12 -d -1 -p cbr -e 210 -c 2 -a 0 -i 113 -k AGT
d -t 19.337887496 -s 12 -d 13 -p cbr -e 230 -c 2 -a 0 -i 113 -k IFQ
r -t 19.345153667 -s 13 -d 13 -p cbr -e 230 -c 2 -a 0 -i 12 -k AGT
+ -t 19.346262496 -s 12 -d -1 -p cbr -e 210 -c 2 -a 0 -i 114 -k AGT 
- -t 19.346262496 -s 12 -d -1 -p cbr -e 210 -c 2 -a 0 -i 114 -k AGT
h -t 19.346262496 -s 12 -d -1 -p cbr -e 210 -c 2 -a 0 -i 114 -k AGT
+ -t 19.354662496 -s 12 -d -1 -p cbr -e 210 -c 2 -a 0 -i 115 -k AGT 
- -t 19.354662496 -s 12 -d -1 -p cbr -e 210 -c 2 -a 0 -i 115 -k AGT
h -t 19.354662496 -s 12 -d -1 -p cbr -e 210 -c 2 -a 0 -i 115 -k AGT
d -t 19.354687496 -s 12 -d 13 -p cbr -e 230 -c 2 -a 0 -i 115 -k IFQ
+ -t 19.363062496 -s 12 -d -1 -p cbr -e 210 -c 2 -a 0 -i 116 -k AGT 
- -t 19.363062496 -s 12 -d -1 -p cbr -e 210 -c 2 -a 0 -i 116 -k AGT
h -t 19.363062496 -s 12 -d -1 -p cbr -e 210 -c 2 -a 0 -i 116 -k AGT
d -t 19.363087496 -s 12 -d 13 -p cbr -e 230 -c 2 -a 0 -i 116 -k IFQ
+ -t 19.371462496 -s 12 -d -1 -p cbr -e 210 -c 2 -a 0 -i 117 -k AGT 
- -t 19.371462496 -s 12 -d -1 -p cbr -e 210 -c 2 -a 0 -i 117 -k AGT
h -t 19.371462496 -s 12 -d -1 -p cbr -e 210 -c 2 -a 0 -i 117 -k AGT
d -t 19.371487496 -s 12 -d 13 -p cbr -e 230 -c 2 -a 0 -i 117 -k IFQ