s 0.100000000 _0_ AGT  --- 1 0 cbr 210 [0 0 0 0] ------- [0:0 1:0 32 0] [0] 0 0
s 0.156000000 _0_ AGT  --- 1 1 cbr 210 [0 0 0 0] ------- [0:0 1:0 32 0] [1] 0 0
s 0.200000000 _2_ AGT  --- 2 2 cbr 210 [0 0 0 0] ------- [2:0 3:0 32 0] [0] 0 0
s 0.212000000 _0_ AGT  --- 1 3 cbr 210 [0 0 0 0] ------- [0:0 1:0 32 0] [2] 0 0
s 0.256000000 _2_ AGT  --- 2 4 cbr 210 [0 0 0 0] ------- [2:0 3:0 32 0] [1] 0 0
s 0.268000000 _0_ AGT  --- 1 5 cbr 210 [0 0 0 0] ------- [0:0 1:0 32 0] [3] 0 0
r 0.271153767 _1_ AGT  --- 1 0 cbr 230 [5 1 0 0] ------- [0:0 1:0 30 1] [0] 1 0
s 0.312000000 _2_ AGT  --- 2 6 cbr 210 [0 0 0 0] ------- [2:0 3:0 32 0] [2] 0 0
r 0.313153767 _1_ AGT  --- 1 5 cbr 230 [5 1 0 0] ------- [0:0 1:0 30 1] [3] 1 0
s 0.324000000 _0_ AGT  --- 1 7 cbr 210 [0 0 0 0] ------- [0:0 1:0 32 0] [4] 0 0
r 0.355153767 _1_ AGT  --- 1 1 cbr 230 [5 1 0 0] ------- [0:0 1:0 30 1] [1] 1 0
s 0.368000000 _2_ AGT  --- 2 8 cbr 210 [0 0 0 0] ------- [2:0 3:0 32 0] [3] 0 0
s 0.380000000 _0_ AGT  --- 1 9 cbr 210 [0 0 0 0] ------- [0:0 1:0 32 0] [5] 0 0
r 0.397153767 _1_ AGT  --- 1 3 cbr 230 [5 1 0 0] ------- [0:0 1:0 30 1] [2] 1 0
s 0.424000000 _2_ AGT  --- 2 10 cbr 210 [0 0 0 0] ------- [2:0 3:0 32 0] [4] 0 0
s 0.436000000 _0_ AGT  --- 1 11 cbr 210 [0 0 0 0] ------- [0:0 1:0 32 0] [6] 0 0
r 0.439153767 _1_ AGT  --- 1 7 cbr 230 [5 1 0 0] ------- [0:0 1:0 30 1] [4] 1 0
s 0.480000000 _2_ AGT  --- 2 12 cbr 210 [0 0 0 0] ------- [2:0 3:0 32 0] [5] 0 0
r 0.481153767 _1_ AGT  --- 1 9 cbr 230 [5 1 0 0] ------- [0:0 1:0 30 1] [5] 1 0
s 0.492000000 _0_ AGT  --- 1 13 cbr 210 [0 0 0 0] ------- [0:0 1:0 32 0] [7] 0 0
r 0.523153767 _1_ AGT  --- 1 11 cbr 230 [5 1 0 0] ------- [0:0 1:0 30 1] [6] 1 0
s 0.536000000 _2_ AGT  --- 2 14 cbr 210 [0 0 0 0] ------- [2:0 3:0 32 0] [6] 0 0
s 0.548000000 _0_ AGT  --- 1 15 cbr 210 [0 0 0 0] ------- [0:0 1:0 32 0] [8] 0 0
r 0.565153767 _1_ AGT  --- 1 13 cbr 230 [5 1 0 0] ------- [0:0 1:0 30 1] [7] 1 0
s 0.592000000 _2_ AGT  --- 2 16 cbr 210 [0 0 0 0] ------- [2:0 3:0 32 0] [7] 0 0
s 0.604000000 _0_ AGT  --- 1 17 cbr 210 [0 0 0 0] ------- [0:0 1:0 32 0] [9] 0 0
r 0.607153767 _1_ AGT  --- 1 15 cbr 230 [5 1 0 0] ------- [0:0 1:0 30 1] [8] 1 0
s 0.648000000 _2_ AGT  --- 2 18 cbr 210 [0 0 0 0] ------- [2:0 3:0 32 0] [8] 0 0
r 0.649153767 _1_ AGT  --- 1 17 cbr 230 [5 1 0 0] ------- [0:0 1:0 30 1] [9] 1 0
s 0.660000000 _0_ AGT  --- 1 19 cbr 210 [0 0 0 0] ------- [0:0 1:0 32 0] [10] 0 0
r 0.691153767 _1_ AGT  --- 1 19 cbr 230 [5 1 0 0] ------- [0:0 1:0 30 1] [10] 1 0
s 0.704000000 _2_ AGT  --- 2 20 cbr 210 [0 0 0 0] ------- [2:0 3:0 32 0] [9] 0 0
s 0.716000000 _0_ AGT  --- 1 21 cbr 210 [0 0 0 0] ------- [0:0 1:0 32 0] [11] 0 0
r 0.733153767 _1_ AGT  --- 1 21 cbr 230 [5 1 0 0] ------- [0:0 1:0 30 1] [11] 1 0
s 0.760000000 _2_ AGT  --- 2 22 cbr 210 [0 0 0 0] ------- [2:0 3:0 32 0] [10] 0 0
s 0.772000000 _0_ AGT  --- 1 23 cbr 210 [0 0 0 0] ------- [0:0 1:0 32 0] [12] 0 0
r 0.775153767 _1_ AGT  --- 1 23 cbr 230 [5 1 0 0] ------- [0:0 1:0 30 1] [12] 1 0
s 0.816000000 _2_ AGT  --- 2 24 cbr 210 [0 0 0 0] ------- [2:0 3:0 32 0] [11] 0 0
s 0.828000000 _0_ AGT  --- 1 25 cbr 210 [0 0 0 0] ------- [0:0 1:0 32 0] [13] 0 0
r 0.859153767 _1_ AGT  --- 1 25 cbr 230 [5 1 0 0] ------- [0:0 1:0 30 1] [13] 1 0
s 0.872000000 _2_ AGT  --- 2 26 cbr 210 [0 0 0 0] ------- [2:0 3:0 32 0] [12] 0 0
s 0.884000000 _0_ AGT  --- 1 27 cbr 210 [0 0 0 0] ------- [0:0 1:0 32 0] [14] 0 0
r 0.901153767 _1_ AGT  --- 1 27 cbr 230 [5 1 0 0] ------- [0:0 1:0 30 1] [14] 1 0
s 0.928000000 _2_ AGT  --- 2 28 cbr 210 [0 0 0 0] ------- [2:0 3:0 32 0] [13] 0 0
s 0.940000000 _0_ AGT  --- 1 29 cbr 210 [0 0 0 0] ------- [0:0 1:0 32 0] [15] 0 0
r 0.943153767 _1_ AGT  --- 1 29 cbr 230 [5 1 0 0] ------- [0:0 1:0 30 1] [15] 1 0
s 0.984000000 _2_ AGT  --- 2 30 cbr 210 [0 0 0 0] ------- [2:0 3:0 32 0] [14] 0 0
s 0.996000000 _0_ AGT  --- 1 31 cbr 210 [0 0 0 0] ------- [0:0 1:0 32 0] [16] 0 0
r 1.027153767 _1_ AGT  --- 1 31 cbr 230 [5 1 0 0] ------- [0:0 1:0 30 1] [16] 1 0
s 1.040000000 _2_ AGT  --- 2 32 cbr 210 [0 0 0 0] ------- [2:0 3:0 32 0] [15] 0 0
s 1.052000000 _0_ AGT  --- 1 33 cbr 210 [0 0 0 0] ------- [0:0 1:0 32 0] [17] 0 0
r 1.069153767 _1_ AGT  --- 1 33 cbr 230 [5 1 0 0] ------- [0:0 1:0 30 1] [17] 1 0
s 1.096000000 _2_ AGT  --- 2 34 cbr 210 [0 0 0 0] ------- [2:0 3:0 32 0] [16] 0 0
s 1.108000000 _0_ AGT  --- 1 35 cbr 210 [0 0 0 0] ------- [0:0 1:0 32 0] [18] 0 0
r 1.111153767 _1_ AGT  --- 1 35 cbr 230 [5 1 0 0] ------- [0:0 1:0 30 1] [18] 1 0
s 1.152000000 _2_ AGT  --- 2 36 cbr 210 [0 0 0 0] ------- [2:0 3:0 32 0] [17] 0 0
s 1.164000000 _0_ AGT  --- 1 37 cbr 210 [0 0 0 0] ------- [0:0 1:0 32 0] [19] 0 0
r 1.195153767 _1_ AGT  --- 1 37 cbr 230 [5 1 0 0] ------- [0:0 1:0 30 1] [19] 1 0
s 1.208000000 _2_ AGT  --- 2 38 cbr 210 [0 0 0 0] ------- [2:0 3:0 32 0] [18] 0 0
s 1.220000000 _0_ AGT  --- 1 39 cbr 210 [0 0 0 0] ------- [0:0 1:0 32 0] [20] 0 0
r 1.237153767 _1_ AGT  --- 1 39 cbr 230 [5 1 0 0] ------- [0:0 1:0 30 1] [20] 1 0
s 1.264000000 _2_ AGT  --- 2 40 cbr 210 [0 0 0 0] ------- [2:0 3:0 32 0] [19] 0 0
s 1.276000000 _0_ AGT  --- 1 41 cbr 210 [0 0 0 0] ------- [0:0 1:0 32 0] [21] 0 0
r 1.279153767 _1_ AGT  --- 1 41 cbr 230 [5 1 0 0] ------- [0:0 1:0 30 1] [21] 1 0
s 1.320000000 _2_ AGT  --- 2 42 cbr 210 [0 0 0 0] ------- [2:0 3:0 32 0] [20] 0 0
s 1.332000000 _0_ AGT  --- 1 43 cbr 210 [0 0 0 0] ------- [0:0 1:0 32 0] [22] 0 0
r 1.363153767 _1_ AGT  --- 1 43 cbr 230 [5 1 0 0] ------- [0:0 1:0 30 1] [22] 1 0
s 1.376000000 _2_ AGT  --- 2 44 cbr 210 [0 0 0 0] ------- [2:0 3:0 32 0] [21] 0 0
s 1.388000000 _0_ AGT  --- 1 45 cbr 210 [0 0 0 0] ------- [0:0 1:0 32 0] [23] 0 0
r 1.405153767 _1_ AGT  --- 1 45 cbr 230 [5 1 0 0] ------- [0:0 1:0 30 1] [23] 1 0
s 1.432000000 _2_ AGT  --- 2 46 cbr 210 [0 0 0 0] ------- [2:0 3:0 32 0] [22] 0 0
s 1.444000000 _0_ AGT  --- 1 47 cbr 210 [0 0 0 0] ------- [0:0 1:0 32 0] [24] 0 0
r 1.447153767 _1_ AGT  --- 1 47 cbr 230 [5 1 0 0] ------- [0:0 1:0 30 1] [24] 1 0
s 1.488000000 _2_ AGT  --- 2 48 cbr 210 [0 0 0 0] ------- [2:0 3:0 32 0] [23] 0 0
s 1.500000000 _0_ AGT  --- 1 49 cbr 210 [0 0 0 0] ------- [0:0 1:0 32 0] [25] 0 0
r 1.531153767 _1_ AGT  --- 1 49 cbr 230 [5 1 0 0] ------- [0:0 1:0 30 1] [25] 1 0
s 1.544000000 _2_ AGT  --- 2 50 cbr 210 [0 0 0 0] ------- [2:0 3:0 32 0] [24] 0 0
s 1.556000000 _0_ AGT  --- 1 51 cbr 210 [0 0 0 0] ------- [0:0 1:0 32 0] [26] 0 0
r 1.573153767 _1_ AGT  --- 1 51 cbr 230 [5 1 0 0] ------- [0:0 1:0 30 1] [26] 1 0
s 1.600000000 _2_ AGT  --- 2 52 cbr 210 [0 0 0 0] ------- [2:0 3:0 32 0] [25] 0 0
s 1.612000000 _0_ AGT  --- 1 53 cbr 210 [0 0 0 0] ------- [0:0 1:0 32 0] [27] 0 0
r 1.615153767 _1_ AGT  --- 1 53 cbr 230 [5 1 0 0] ------- [0:0 1:0 30 1] [27] 1 0
s 1.656000000 _2_ AGT  --- 2 54 cbr 210 [0 0 0 0] ------- [2:0 3:0 32 0] [26] 0 0
s 1.668000000 _0_ AGT  --- 1 55 cbr 210 [0 0 0 0] ------- [0:0 1:0 32 0] [28] 0 0
r 1.699153767 _1_ AGT  --- 1 55 cbr 230 [5 1 0 0] ------- [0:0 1:0 30 1] [28] 1 0
s 1.712000000 _2_ AGT  --- 2 56 cbr 210 [0 0 0 0] ------- [2:0 3:0 32 0] [27] 0 0
s 1.724000000 _0_ AGT  --- 1 57 cbr 210 [0 0 0 0] ------- [0:0 1:0 32 0] [29] 0 0
r 1.741153767 _1_ AGT  --- 1 57 cbr 230 [5 1 0 0] ------- [0:0 1:0 30 1] [29] 1 0
s 1.768000000 _2_ AGT  --- 2 58 cbr 210 [0 0 0 0] ------- [2:0 3:0 32 0] [28] 0 0
s 1.780000000 _0_ AGT  --- 1 59 cbr 210 [0 0 0 0] ------- [0:0 1:0 32 0] [30] 0 0
r 1.783153767 _1_ AGT  --- 1 59 cbr 230 [5 1 0 0] ------- [0:0 1:0 30 1] [30] 1 0
s 1.824000000 _2_ AGT  --- 2 60 cbr 210 [0 0 0 0] ------- [2:0 3:0 32 0] [29] 0 0
s 1.836000000 _0_ AGT  --- 1 61 cbr 210 [0 0 0 0] ------- [0:0 1:0 32 0] [31] 0 0
r 1.867153767 _1_ AGT  --- 1 61 cbr 230 [5 1 0 0] ------- [0:0 1:0 30 1] [31] 1 0
s 1.880000000 _2_ AGT  --- 2 62 cbr 210 [0 0 0 0] ------- [2:0 3:0 32 0] [30] 0 0
s 1.892000000 _0_ AGT  --- 1 63 cbr 210 [0 0 0 0] ------- [0:0 1:0 32 0] [32] 0 0
r 1.909153767 _1_ AGT  --- 1 63 cbr 230 [5 1 0 0] ------- [0:0 1:0 30 1] [32] 1 0
s 1.936000000 _2_ AGT  --- 2 64 cbr 210 [0 0 0 0] ------- [2:0 3:0 32 0] [31] 0 0
s 1.948000000 _0_ AGT  --- 1 65 cbr 210 [0 0 0 0] ------- [0:0 1:0 32 0] [33] 0 0
r 1.951153767 _1_ AGT  --- 1 65 cbr 230 [5 1 0 0] ------- [0:0 1:0 30 1] [33] 1 0
s 1.992000000 _2_ AGT  --- 2 66 cbr 210 [0 0 0 0] ------- [2:0 3:0 32 0] [32] 0 0
s 2.004000000 _0_ AGT  --- 1 67 cbr 210 [0 0 0 0] ------- [0:0 1:0 32 0] [34] 0 0
r 2.035153767 _1_ AGT  --- 1 67 cbr 230 [5 1 0 0] ------- [0:0 1:0 30 1] [34] 1 0
s 2.048000000 _2_ AGT  --- 2 68 cbr 210 [0 0 0 0] ------- [2:0 3:0 32 0] [33] 0 0
s 2.060000000 _0_ AGT  --- 1 69 cbr 210 [0 0 0 0] ------- [0:0 1:0 32 0] [35] 0 0
r 2.077153767 _1_ AGT  --- 1 69 cbr 230 [5 1 0 0] ------- [0:0 1:0 30 1] [35] 1 0
s 2.104000000 _2_ AGT  --- 2 70 cbr 210 [0 0 0 0] ------- [2:0 3:0 32 0] [34] 0 0
s 2.116000000 _0_ AGT  --- 1 71 cbr 210 [0 0 0 0] ------- [0:0 1:0 32 0] [36] 0 0
r 2.119153767 _1_ AGT  --- 1 71 cbr 230 [5 1 0 0] ------- [0:0 1:0 30 1] [36] 1 0
s 2.160000000 _2_ AGT  --- 2 72 cbr 210 [0 0 0 0] ------- [2:0 3:0 32 0] [35] 0 0
s 2.172000000 _0_ AGT  --- 1 73 cbr 210 [0 0 0 0] ------- [0:0 1:0 32 0] [37] 0 0
r 2.203153767 _1_ AGT  --- 1 73 cbr 230 [5 1 0 0] ------- [0:0 1:0 30 1] [37] 1 0
s 2.216000000 _2_ AGT  --- 2 74 cbr 210 [0 0 0 0] ------- [2:0 3:0 32 0] [36] 0 0
s 2.228000000 _0_ AGT  --- 1 75 cbr 210 [0 0 0 0] ------- [0:0 1:0 32 0] [38] 0 0
r 2.245153767 _1_ AGT  --- 1 75 cbr 230 [5 1 0 0] ------- [0:0 1:0 30 1] [38] 1 0
s 2.272000000 _2_ AGT  --- 2 76 cbr 210 [0 0 0 0] ------- [2:0 3:0 32 0] [37] 0 0
s 2.284000000 _0_ AGT  --- 1 77 cbr 210 [0 0 0 0] ------- [0:0 1:0 32 0] [39] 0 0
r 2.287153767 _1_ AGT  --- 1 77 cbr 230 [5 1 0 0] ------- [0:0 1:0 30 1] [39] 1 0
s 2.328000000 _2_ AGT  --- 2 78 cbr 210 [0 0 0 0] ------- [2:0 3:0 32 0] [38] 0 0
s 2.340000000 _0_ AGT  --- 1 79 cbr 210 [0 0 0 0] ------- [0:0 1:0 32 0] [40] 0 0
r 2.371153767 _1_ AGT  --- 1 79 cbr 230 [5 1 0 0] ------- [0:0 1:0 30 1] [40] 1 0
s 2.384000000 _2_ AGT  --- 2 80 cbr 210 [0 0 0 0] ------- [2:0 3:0 32 0] [39] 0 0
s 2.396000000 _0_ AGT  --- 1 81 cbr 210 [0 0 0 0] ------- [0:0 1:0 32 0] [41] 0 0
r 2.413153767 _1_ AGT  --- 1 81 cbr 230 [5 1 0 0] ------- [0:0 1:0 30 1] [41] 1 0
s 2.440000000 _2_ AGT  --- 2 82 cbr 210 [0 0 0 0] ------- [2:0 3:0 32 0] [40] 0 0
s 2.452000000 _0_ AGT  --- 1 83 cbr 210 [0 0 0 0] ------- [0:0 1:0 32 0] [42] 0 0
r 2.455153767 _1_ AGT  --- 1 83 cbr 230 [5 1 0 0] ------- [0:0 1:0 30 1] [42] 1 0
s 2.496000000 _2_ AGT  --- 2 84 cbr 210 [0 0 0 0] ------- [2:0 3:0 32 0] [41] 0 0
s 2.508000000 _0_ AGT  --- 1 85 cbr 210 [0 0 0 0] ------- [0:0 1:0 32 0] [43] 0 0
r 2.539153767 _1_ AGT  --- 1 85 cbr 230 [5 1 0 0] ------- [0:0 1:0 30 1] [43] 1 0
s 2.552000000 _2_ AGT  --- 2 86 cbr 210 [0 0 0 0] ------- [2:0 3:0 32 0] [42] 0 0
s 2.564000000 _0_ AGT  --- 1 87 cbr 210 [0 0 0 0] ------- [0:0 1:0 32 0] [44] 0 0
r 2.581153767 _1_ AGT  --- 1 87 cbr 230 [5 1 0 0] ------- [0:0 1:0 30 1] [44] 1 0
s 2.608000000 _2_ AGT  --- 2 88 cbr 210 [0 0 0 0] ------- [2:0 3:0 32 0] [43] 0 0
s 2.620000000 _0_ AGT  --- 1 89 cbr 210 [0 0 0 0] ------- [0:0 1:0 32 0] [45] 0 0
s 2.664000000 _2_ AGT  --- 2 90 cbr 210 [0 0 0 0] ------- [2:0 3:0 32 0] [44] 0 0
r 2.665153767 _1_ AGT  --- 1 89 cbr 230 [5 1 0 0] ------- [0:0 1:0 30 1] [45] 1 0
s 2.676000000 _0_ AGT  --- 1 91 cbr 210 [0 0 0 0] ------- [0:0 1:0 32 0] [46] 0 0
r 2.707153767 _1_ AGT  --- 1 91 cbr 230 [5 1 0 0] ------- [0:0 1:0 30 1] [46] 1 0
s 2.720000000 _2_ AGT  --- 2 92 cbr 210 [0 0 0 0] ------- [2:0 3:0 32 0] [45] 0 0
s 2.732000000 _0_ AGT  --- 1 93 cbr 210 [0 0 0 0] ------- [0:0 1:0 32 0] [47] 0 0
r 2.749153767 _1_ AGT  --- 1 93 cbr 230 [5 1 0 0] ------- [0:0 1:0 30 1] [47] 1 0
s 2.776000000 _2_ AGT  --- 2 94 cbr 210 [0 0 0 0] ------- [2:0 3:0 32 0] [46] 0 0
s 2.788000000 _0_ AGT  --- 1 95 cbr 210 [0 0 0 0] ------- [0:0 1:0 32 0] [48] 0 0
r 2.791153767 _1_ AGT  --- 1 95 cbr 230 [5 1 0 0] ------- [0:0 1:0 30 1] [48] 1 0
s 2.832000000 _2_ AGT  --- 2 96 cbr 210 [0 0 0 0] ------- [2:0 3:0 32 0] [47] 0 0
s 2.844000000 _0_ AGT  --- 1 97 cbr 210 [0 0 0 0] ------- [0:0 1:0 32 0] [49] 0 0
r 2.875153767 _1_ AGT  --- 1 97 cbr 230 [5 1 0 0] ------- [0:0 1:0 30 1] [49] 1 0
s 2.888000000 _2_ AGT  --- 2 98 cbr 210 [0 0 0 0] ------- [2:0 3:0 32 0] [48] 0 0
s 2.900000000 _0_ AGT  --- 1 99 cbr 210 [0 0 0 0] ------- [0:0 1:0 32 0] [50] 0 0
r 2.917153767 _1_ AGT  --- 1 99 cbr 230 [5 1 0 0] ------- [0:0 1:0 30 1] [50] 1 0
s 2.944000000 _2_ AGT  --- 2 100 cbr 210 [0 0 0 0] ------- [2:0 3:0 32 0] [49] 0 0
s 2.956000000 _0_ AGT  --- 1 101 cbr 210 [0 0 0 0] ------- [0:0 1:0 32 0] [51] 0 0
r 2.959153767 _1_ AGT  --- 1 101 cbr 230 [5 1 0 0] ------- [0:0 1:0 30 1] [51] 1 0
s 3.000000000 _2_ AGT  --- 2 102 cbr 210 [0 0 0 0] ------- [2:0 3:0 32 0] [50] 0 0
s 3.012000000 _0_ AGT  --- 1 103 cbr 210 [0 0 0 0] ------- [0:0 1:0 32 0] [52] 0 0
r 3.043153767 _1_ AGT  --- 1 103 cbr 230 [5 1 0 0] ------- [0:0 1:0 30 1] [52] 1 0
s 3.056000000 _2_ AGT  --- 2 104 cbr 210 [0 0 0 0] ------- [2:0 3:0 32 0] [51] 0 0
s 3.068000000 _0_ AGT  --- 1 105 cbr 210 [0 0 0 0] ------- [0:0 1:0 32 0] [53] 0 0
r 3.085153767 _1_ AGT  --- 1 105 cbr 230 [5 1 0 0] ------- [0:0 1:0 30 1] [53] 1 0
s 3.112000000 _2_ AGT  --- 2 106 cbr 210 [0 0 0 0] ------- [2:0 3:0 32 0] [52] 0 0
s 3.124000000 _0_ AGT  --- 1 107 cbr 210 [0 0 0 0] ------- [0:0 1:0 32 0] [54] 0 0
r 3.127153767 _1_ AGT  --- 1 107 cbr 230 [5 1 0 0] ------- [0:0 1:0 30 1] [54] 1 0
s 3.168000000 _2_ AGT  --- 2 108 cbr 210 [0 0 0 0] ------- [2:0 3:0 32 0] [53] 0 0
s 3.180000000 _0_ AGT  --- 1 109 cbr 210 [0 0 0 0] ------- [0:0 1:0 32 0] [55] 0 0
r 3.211153767 _1_ AGT  --- 1 109 cbr 230 [5 1 0 0] ------- [0:0 1:0 30 1] [55] 1 0
s 3.224000000 _2_ AGT  --- 2 110 cbr 210 [0 0 0 0] ------- [2:0 3:0 32 0] [54] 0 0
s 3.236000000 _0_ AGT  --- 1 111 cbr 210 [0 0 0 0] ------- [0:0 1:0 32 0] [56] 0 0
r 3.253153767 _1_ AGT  --- 1 111 cbr 230 [5 1 0 0] ------- [0:0 1:0 30 1] [56] 1 0
s 3.280000000 _2_ AGT  --- 2 112 cbr 210 [0 0 0 0] ------- [2:0 3:0 32 0] [55] 0 0
s 3.292000000 _0_ AGT  --- 1 113 cbr 210 [0 0 0 0] ------- [0:0 1:0 32 0] [57] 0 0
r 3.295153767 _1_ AGT  --- 1 113 cbr 230 [5 1 0 0] ------- [0:0 1:0 30 1] [57] 1 0
s 3.336000000 _2_ AGT  --- 2 114 cbr 210 [0 0 0 0] ------- [2:0 3:0 32 0] [56] 0 0
s 3.348000000 _0_ AGT  --- 1 115 cbr 210 [0 0 0 0] ------- [0:0 1:0 32 0] [58] 0 0
r 3.379153767 _1_ AGT  --- 1 115 cbr 230 [5 1 0 0] ------- [0:0 1:0 30 1] [58] 1 0
s 3.392000000 _2_ AGT  --- 2 116 cbr 210 [0 0 0 0] ------- [2:0 3:0 32 0] [57] 0 0
s 3.404000000 _0_ AGT  --- 1 117 cbr 210 [0 0 0 0] ------- [0:0 1:0 32 0] [59] 0 0
r 3.421153767 _1_ AGT  --- 1 117 cbr 230 [5 1 0 0] ------- [0:0 1:0 30 1] [59] 1 0
s 3.448000000 _2_ AGT  --- 2 118 cbr 210 [0 0 0 0] ------- [2:0 3:0 32 0] [58] 0 0
s 3.460000000 _0_ AGT  --- 1 119 cbr 210 [0 0 0 0] ------- [0:0 1:0 32 0] [60] 0 0
r 3.463153767 _1_ AGT  --- 1 119 cbr 230 [5 1 0 0] ------- [0:0 1:0 30 1] [60] 1 0
s 3.504000000 _2_ AGT  --- 2 120 cbr 210 [0 0 0 0] ------- [2:0 3:0 32 0] [59] 0 0
s 3.516000000 _0_ AGT  --- 1 121 cbr 210 [0 0 0 0] ------- [0:0 1:0 32 0] [61] 0 0
r 3.547153767 _1_ AGT  --- 1 121 cbr 230 [5 1 0 0] ------- [0:0 1:0 30 1] [61] 1 0
s 3.560000000 _2_ AGT  --- 2 122 cbr 210 [0 0 0 0] ------- [2:0 3:0 32 0] [60] 0 0
s 3.572000000 _0_ AGT  --- 1 123 cbr 210 [0 0 0 0] ------- [0:0 1:0 32 0] [62] 0 0
r 3.589153767 _1_ AGT  --- 1 123 cbr 230 [5 1 0 0] ------- [0:0 1:0 30 1] [62] 1 0
s 3.616000000 _2_ AGT  --- 2 124 cbr 210 [0 0 0 0] ------- [2:0 3:0 32 0] [61] 0 0
s 3.628000000 _0_ AGT  --- 1 125 cbr 210 [0 0 0 0] ------- [0:0 1:0 32 0] [63] 0 0
r 3.631153767 _1_ AGT  --- 1 125 cbr 230 [5 1 0 0] ------- [0:0 1:0 30 1] [63] 1 0
s 3.672000000 _2_ AGT  --- 2 126 cbr 210 [0 0 0 0] ------- [2:0 3:0 32 0] [62] 0 0
s 3.684000000 _0_ AGT  --- 1 127 cbr 210 [0 0 0 0] ------- [0:0 1:0 32 0] [64] 0 0
r 3.715153767 _1_ AGT  --- 1 127 cbr 230 [5 1 0 0] ------- [0:0 1:0 30 1] [64] 1 0
s 3.728000000 _2_ AGT  --- 2 128 cbr 210 [0 0 0 0] ------- [2:0 3:0 32 0] [63] 0 0
s 3.740000000 _0_ AGT  --- 1 129 cbr 210 [0 0 0 0] ------- [0:0 1:0 32 0] [65] 0 0
r 3.757153767 _1_ AGT  --- 1 129 cbr 230 [5 1 0 0] ------- [0:0 1:0 30 1] [65] 1 0
s 3.784000000 _2_ AGT  --- 2 130 cbr 210 [0 0 0 0] ------- [2:0 3:0 32 0] [64] 0 0
D 3.784000000 _2_ RTR  IFQ 2 2 cbr 230 [0 0 0 0] ------- [2:0 3:0 30 0] [0] 0 0
s 3.796000000 _0_ AGT  --- 1 131 cbr 210 [0 0 0 0] ------- [0:0 1:0 32 0] [66] 0 0
s 3.840000000 _2_ AGT  --- 2 132 cbr 210 [0 0 0 0] ------- [2:0 3:0 32 0] [65] 0 0
D 3.840000000 _2_ RTR  IFQ 2 4 cbr 230 [0 0 0 0] ------- [2:0 3:0 30 0] [1] 0 0
r 3.841153767 _1_ AGT  --- 1 131 cbr 230 [5 1 0 0] ------- [0:0 1:0 30 1] [66] 1 0
s 3.852000000 _0_ AGT  --- 1 133 cbr 210 [0 0 0 0] ------- [0:0 1:0 32 0] [67] 0 0
r 3.883153767 _1_ AGT  --- 1 133 cbr 230 [5 1 0 0] ------- [0:0 1:0 30 1] [67] 1 0
s 3.896000000 _2_ AGT  --- 2 134 cbr 210 [0 0 0 0] ------- [2:0 3:0 32 0] [66] 0 0
D 3.896000000 _2_ RTR  IFQ 2 6 cbr 230 [0 0 0 0] ------- [2:0 3:0 30 0] [2] 0 0
s 3.908000000 _0_ AGT  --- 1 135 cbr 210 [0 0 0 0] ------- [0:0 1:0 32 0] [68] 0 0
r 3.925153767 _1_ AGT  --- 1 135 cbr 230 [5 1 0 0] ------- [0:0 1:0 30 1] [68] 1 0
s 3.952000000 _2_ AGT  --- 2 136 cbr 210 [0 0 0 0] ------- [2:0 3:0 32 0] [67] 0 0
D 3.952000000 _2_ RTR  IFQ 2 8 cbr 230 [0 0 0 0] ------- [2:0 3:0 30 0] [3] 0 0
s 3.964000000 _0_ AGT  --- 1 137 cbr 210 [0 0 0 0] ------- [0:0 1:0 32 0] [69] 0 0
r 3.967153767 _1_ AGT  --- 1 137 cbr 230 [5 1 0 0] ------- [0:0 1:0 30 1] [69] 1 0
s 4.008000000 _2_ AGT  --- 2 138 cbr 210 [0 0 0 0] ------- [2:0 3:0 32 0] [68] 0 0
D 4.008000000 _2_ RTR  IFQ 2 10 cbr 230 [0 0 0 0] ------- [2:0 3:0 30 0] [4] 0 0
s 4.020000000 _0_ AGT  --- 1 139 cbr 210 [0 0 0 0] ------- [0:0 1:0 32 0] [70] 0 0
r 4.051153767 _1_ AGT  --- 1 139 cbr 230 [5 1 0 0] ------- [0:0 1:0 30 1] [70] 1 0
s 4.064000000 _2_ AGT  --- 2 140 cbr 210 [0 0 0 0] ------- [2:0 3:0 32 0] [69] 0 0
D 4.064000000 _2_ RTR  IFQ 2 12 cbr 230 [0 0 0 0] ------- [2:0 3:0 30 0] [5] 0 0
s 4.076000000 _0_ AGT  --- 1 141 cbr 210 [0 0 0 0] ------- [0:0 1:0 32 0] [71] 0 0
r 4.093153767 _1_ AGT  --- 1 141 cbr 230 [5 1 0 0] ------- [0:0 1:0 30 1] [71] 1 0
s 4.120000000 _2_ AGT  --- 2 142 cbr 210 [0 0 0 0] ------- [2:0 3:0 32 0] [70] 0 0
D 4.120000000 _2_ RTR  IFQ 2 14 cbr 230 [0 0 0 0] ------- [2:0 3:0 30 0] [6] 0 0
s 4.132000000 _0_ AGT  --- 1 143 cbr 210 [0 0 0 0] ------- [0:0 1:0 32 0] [72] 0 0
r 4.135153767 _1_ AGT  --- 1 143 cbr 230 [5 1 0 0] ------- [0:0 1:0 30 1] [72] 1 0
s 4.176000000 _2_ AGT  --- 2 144 cbr 210 [0 0 0 0] ------- [2:0 3:0 32 0] [71] 0 0
D 4.176000000 _2_ RTR  IFQ 2 16 cbr 230 [0 0 0 0] ------- [2:0 3:0 30 0] [7] 0 0
s 4.188000000 _0_ AGT  --- 1 145 cbr 210 [0 0 0 0] ------- [0:0 1:0 32 0] [73] 0 0
r 4.219153767 _1_ AGT  --- 1 145 cbr 230 [5 1 0 0] ------- [0:0 1:0 30 1] [73] 1 0
s 4.232000000 _2_ AGT  --- 2 146 cbr 210 [0 0 0 0] ------- [2:0 3:0 32 0] [72] 0 0
D 4.232000000 _2_ RTR  IFQ 2 18 cbr 230 [0 0 0 0] ------- [2:0 3:0 30 0] [8] 0 0
s 4.244000000 _0_ AGT  --- 1 147 cbr 210 [0 0 0 0] ------- [0:0 1:0 32 0] [74] 0 0
r 4.261153767 _1_ AGT  --- 1 147 cbr 230 [5 1 0 0] ------- [0:0 1:0 30 1] [74] 1 0
s 4.288000000 _2_ AGT  --- 2 148 cbr 210 [0 0 0 0] ------- [2:0 3:0 32 0] [73] 0 0
D 4.288000000 _2_ RTR  IFQ 2 20 cbr 230 [0 0 0 0] ------- [2:0 3:0 30 0] [9] 0 0
s 4.300000000 _0_ AGT  --- 1 149 cbr 210 [0 0 0 0] ------- [0:0 1:0 32 0] [75] 0 0
r 4.303153767 _1_ AGT  --- 1 149 cbr 230 [5 1 0 0] ------- [0:0 1:0 30 1] [75] 1 0
s 4.344000000 _2_ AGT  --- 2 150 cbr 210 [0 0 0 0] ------- [2:0 3:0 32 0] [74] 0 0
D 4.344000000 _2_ RTR  IFQ 2 22 cbr 230 [0 0 0 0] ------- [2:0 3:0 30 0] [10] 0 0
s 4.356000000 _0_ AGT  --- 1 151 cbr 210 [0 0 0 0] ------- [0:0 1:0 32 0] [76] 0 0
r 4.387153767 _1_ AGT  --- 1 151 cbr 230 [5 1 0 0] ------- [0:0 1:0 30 1] [76] 1 0
s 4.400000000 _2_ AGT  --- 2 152 cbr 210 [0 0 0 0] ------- [2:0 3:0 32 0] [75] 0 0
D 4.400000000 _2_ RTR  IFQ 2 24 cbr 230 [0 0 0 0] ------- [2:0 3:0 30 0] [11] 0 0
s 4.412000000 _0_ AGT  --- 1 153 cbr 210 [0 0 0 0] ------- [0:0 1:0 32 0] [77] 0 0
r 4.429153767 _1_ AGT  --- 1 153 cbr 230 [5 1 0 0] ------- [0:0 1:0 30 1] [77] 1 0
s 4.456000000 _2_ AGT  --- 2 154 cbr 210 [0 0 0 0] ------- [2:0 3:0 32 0] [76] 0 0
D 4.456000000 _2_ RTR  IFQ 2 26 cbr 230 [0 0 0 0] ------- [2:0 3:0 30 0] [12] 0 0
s 4.468000000 _0_ AGT  --- 1 155 cbr 210 [0 0 0 0] ------- [0:0 1:0 32 0] [78] 0 0
r 4.471153767 _1_ AGT  --- 1 155 cbr 230 [5 1 0 0] ------- [0:0 1:0 30 1] [78] 1 0
s 4.512000000 _2_ AGT  --- 2 156 cbr 210 [0 0 0 0] ------- [2:0 3:0 32 0] [77] 0 0
D 4.512000000 _2_ RTR  IFQ 2 28 cbr 230 [0 0 0 0] ------- [2:0 3:0 30 0] [13] 0 0
s 4.524000000 _0_ AGT  --- 1 157 cbr 210 [0 0 0 0] ------- [0:0 1:0 32 0] [79] 0 0
r 4.555153767 _1_ AGT  --- 1 157 cbr 230 [5 1 0 0] ------- [0:0 1:0 30 1] [79] 1 0
s 4.568000000 _2_ AGT  --- 2 158 cbr 210 [0 0 0 0] ------- [2:0 3:0 32 0] [78] 0 0
D 4.568000000 _2_ RTR  IFQ 2 30 cbr 230 [0 0 0 0] ------- [2:0 3:0 30 0] [14] 0 0
s 4.580000000 _0_ AGT  --- 1 159 cbr 210 [0 0 0 0] ------- [0:0 1:0 32 0] [80] 0 0
r 4.597153767 _1_ AGT  --- 1 159 cbr 230 [5 1 0 0] ------- [0:0 1:0 30 1] [80] 1 0
s 4.624000000 _2_ AGT  --- 2 160 cbr 210 [0 0 0 0] ------- [2:0 3:0 32 0] [79] 0 0
D 4.624000000 _2_ RTR  IFQ 2 32 cbr 230 [0 0 0 0] ------- [2:0 3:0 30 0] [15] 0 0
s 4.636000000 _0_ AGT  --- 1 161 cbr 210 [0 0 0 0] ------- [0:0 1:0 32 0] [81] 0 0
r 4.639153767 _1_ AGT  --- 1 161 cbr 230 [5 1 0 0] ------- [0:0 1:0 30 1] [81] 1 0
s 4.680000000 _2_ AGT  --- 2 162 cbr 210 [0 0 0 0] ------- [2:0 3:0 32 0] [80] 0 0
D 4.680000000 _2_ RTR  IFQ 2 34 cbr 230 [0 0 0 0] ------- [2:0 3:0 30 0] [16] 0 0
s 4.692000000 _0_ AGT  --- 1 163 cbr 210 [0 0 0 0] ------- [0:0 1:0 32 0] [82] 0 0
r 4.723153767 _1_ AGT  --- 1 163 cbr 230 [5 1 0 0] ------- [0:0 1:0 30 1] [82] 1 0
s 4.736000000 _2_ AGT  --- 2 164 cbr 210 [0 0 0 0] ------- [2:0 3:0 32 0] [81] 0 0
D 4.736000000 _2_ RTR  IFQ 2 36 cbr 230 [0 0 0 0] ------- [2:0 3:0 30 0] [17] 0 0
s 4.748000000 _0_ AGT  --- 1 165 cbr 210 [0 0 0 0] ------- [0:0 1:0 32 0] [83] 0 0
r 4.765153767 _1_ AGT  --- 1 165 cbr 230 [5 1 0 0] ------- [0:0 1:0 30 1] [83] 1 0
s 4.792000000 _2_ AGT  --- 2 166 cbr 210 [0 0 0 0] ------- [2:0 3:0 32 0] [82] 0 0
D 4.792000000 _2_ RTR  IFQ 2 38 cbr 230 [0 0 0 0] ------- [2:0 3:0 30 0] [18] 0 0
s 4.804000000 _0_ AGT  --- 1 167 cbr 210 [0 0 0 0] ------- [0:0 1:0 32 0] [84] 0 0
r 4.807153767 _1_ AGT  --- 1 167 cbr 230 [5 1 0 0] ------- [0:0 1:0 30 1] [84] 1 0
s 4.848000000 _2_ AGT  --- 2 168 cbr 210 [0 0 0 0] ------- [2:0 3:0 32 0] [83] 0 0
D 4.848000000 _2_ RTR  IFQ 2 40 cbr 230 [0 0 0 0] ------- [2:0 3:0 30 0] [19] 0 0
s 4.860000000 _0_ AGT  --- 1 169 cbr 210 [0 0 0 0] ------- [0:0 1:0 32 0] [85] 0 0
r 4.891153767 _1_ AGT  --- 1 169 cbr 230 [5 1 0 0] ------- [0:0 1:0 30 1] [85] 1 0
s 4.904000000 _2_ AGT  --- 2 170 cbr 210 [0 0 0 0] ------- [2:0 3:0 32 0] [84] 0 0
D 4.904000000 _2_ RTR  IFQ 2 42 cbr 230 [0 0 0 0] ------- [2:0 3:0 30 0] [20] 0 0
s 4.916000000 _0_ AGT  --- 1 171 cbr 210 [0 0 0 0] ------- [0:0 1:0 32 0] [86] 0 0
r 4.933153767 _1_ AGT  --- 1 171 cbr 230 [5 1 0 0] ------- [0:0 1:0 30 1] [86] 1 0
s 4.960000000 _2_ AGT  --- 2 172 cbr 210 [0 0 0 0] ------- [2:0 3:0 32 0] [85] 0 0
D 4.960000000 _2_ RTR  IFQ 2 44 cbr 230 [0 0 0 0] ------- [2:0 3:0 30 0] [21] 0 0
s 4.972000000 _0_ AGT  --- 1 173 cbr 210 [0 0 0 0] ------- [0:0 1:0 32 0] [87] 0 0
r 4.975153767 _1_ AGT  --- 1 173 cbr 230 [5 1 0 0] ------- [0:0 1:0 30 1] [87] 1 0
s 5.016000000 _2_ AGT  --- 2 174 cbr 210 [0 0 0 0] ------- [2:0 3:0 32 0] [86] 0 0
D 5.016000000 _2_ RTR  IFQ 2 46 cbr 230 [0 0 0 0] ------- [2:0 3:0 30 0] [22] 0 0
s 5.028000000 _0_ AGT  --- 1 175 cbr 210 [0 0 0 0] ------- [0:0 1:0 32 0] [88] 0 0
r 5.059153767 _1_ AGT  --- 1 175 cbr 230 [5 1 0 0] ------- [0:0 1:0 30 1] [88] 1 0
s 5.072000000 _2_ AGT  --- 2 176 cbr 210 [0 0 0 0] ------- [2:0 3:0 32 0] [87] 0 0
D 5.072000000 _2_ RTR  IFQ 2 48 cbr 230 [0 0 0 0] ------- [2:0 3:0 30 0] [23] 0 0
s 5.084000000 _0_ AGT  --- 1 177 cbr 210 [0 0 0 0] ------- [0:0 1:0 32 0] [89] 0 0
r 5.101153767 _1_ AGT  --- 1 177 cbr 230 [5 1 0 0] ------- [0:0 1:0 30 1] [89] 1 0
s 5.128000000 _2_ AGT  --- 2 178 cbr 210 [0 0 0 0] ------- [2:0 3:0 32 0] [88] 0 0
D 5.128000000 _2_ RTR  IFQ 2 50 cbr 230 [0 0 0 0] ------- [2:0 3:0 30 0] [24] 0 0
s 5.140000000 _0_ AGT  --- 1 179 cbr 210 [0 0 0 0] ------- [0:0 1:0 32 0] [90] 0 0
r 5.143153767 _1_ AGT  --- 1 179 cbr 230 [5 1 0 0] ------- [0:0 1:0 30 1] [90] 1 0
s 5.184000000 _2_ AGT  --- 2 180 cbr 210 [0 0 0 0] ------- [2:0 3:0 32 0] [89] 0 0
D 5.184000000 _2_ RTR  IFQ 2 52 cbr 230 [0 0 0 0] ------- [2:0 3:0 30 0] [25] 0 0
s 5.196000000 _0_ AGT  --- 1 181 cbr 210 [0 0 0 0] ------- [0:0 1:0 32 0] [91] 0 0
r 5.227153767 _1_ AGT  --- 1 181 cbr 230 [5 1 0 0] ------- [0:0 1:0 30 1] [91] 1 0
s 5.240000000 _2_ AGT  --- 2 182 cbr 210 [0 0 0 0] ------- [2:0 3:0 32 0] [90] 0 0
D 5.240000000 _2_ RTR  IFQ 2 54 cbr 230 [0 0 0 0] ------- [2:0 3:0 30 0] [26] 0 0
s 5.252000000 _0_ AGT  --- 1 183 cbr 210 [0 0 0 0] ------- [0:0 1:0 32 0] [92] 0 0
r 5.269153767 _1_ AGT  --- 1 183 cbr 230 [5 1 0 0] ------- [0:0 1:0 30 1] [92] 1 0
s 5.296000000 _2_ AGT  --- 2 184 cbr 210 [0 0 0 0] ------- [2:0 3:0 32 0] [91] 0 0
D 5.296000000 _2_ RTR  IFQ 2 56 cbr 230 [0 0 0 0] ------- [2:0 3:0 30 0] [27] 0 0
s 5.308000000 _0_ AGT  --- 1 185 cbr 210 [0 0 0 0] ------- [0:0 1:0 32 0] [93] 0 0
r 5.311153767 _1_ AGT  --- 1 185 cbr 230 [5 1 0 0] ------- [0:0 1:0 30 1] [93] 1 0
s 5.352000000 _2_ AGT  --- 2 186 cbr 210 [0 0 0 0] ------- [2:0 3:0 32 0] [92] 0 0
D 5.352000000 _2_ RTR  IFQ 2 58 cbr 230 [0 0 0 0] ------- [2:0 3:0 30 0] [28] 0 0
s 5.364000000 _0_ AGT  --- 1 187 cbr 210 [0 0 0 0] ------- [0:0 1:0 32 0] [94] 0 0
r 5.395153767 _1_ AGT  --- 1 187 cbr 230 [5 1 0 0] ------- [0:0 1:0 30 1] [94] 1 0
s 5.408000000 _2_ AGT  --- 2 188 cbr 210 [0 0 0 0] ------- [2:0 3:0 32 0] [93] 0 0
D 5.408000000 _2_ RTR  IFQ 2 60 cbr 230 [0 0 0 0] ------- [2:0 3:0 30 0] [29] 0 0
s 5.420000000 _0_ AGT  --- 1 189 cbr 210 [0 0 0 0] ------- [0:0 1:0 32 0] [95] 0 0
r 5.437153767 _1_ AGT  --- 1 189 cbr 230 [5 1 0 0] ------- [0:0 1:0 30 1] [95] 1 0
s 5.464000000 _2_ AGT  --- 2 190 cbr 210 [0 0 0 0] ------- [2:0 3:0 32 0] [94] 0 0
D 5.464000000 _2_ RTR  IFQ 2 62 cbr 230 [0 0 0 0] ------- [2:0 3:0 30 0] [30] 0 0
s 5.476000000 _0_ AGT  --- 1 191 cbr 210 [0 0 0 0] ------- [0:0 1:0 32 0] [96] 0 0
r 5.479153767 _1_ AGT  --- 1 191 cbr 230 [5 1 0 0] ------- [0:0 1:0 30 1] [96] 1 0
s 5.520000000 _2_ AGT  --- 2 192 cbr 210 [0 0 0 0] ------- [2:0 3:0 32 0] [95] 0 0
D 5.520000000 _2_ RTR  IFQ 2 64 cbr 230 [0 0 0 0] ------- [2:0 3:0 30 0] [31] 0 0
s 5.532000000 _0_ AGT  --- 1 193 cbr 210 [0 0 0 0] ------- [0:0 1:0 32 0] [97] 0 0
r 5.563153767 _1_ AGT  --- 1 193 cbr 230 [5 1 0 0] ------- [0:0 1:0 30 1] [97] 1 0
s 5.576000000 _2_ AGT  --- 2 194 cbr 210 [0 0 0 0] ------- [2:0 3:0 32 0] [96] 0 0
D 5.576000000 _2_ RTR  IFQ 2 66 cbr 230 [0 0 0 0] ------- [2:0 3:0 30 0] [32] 0 0
s 5.588000000 _0_ AGT  --- 1 195 cbr 210 [0 0 0 0] ------- [0:0 1:0 32 0] [98] 0 0
r 5.605153767 _1_ AGT  --- 1 195 cbr 230 [5 1 0 0] ------- [0:0 1:0 30 1] [98] 1 0
s 5.632000000 _2_ AGT  --- 2 196 cbr 210 [0 0 0 0] ------- [2:0 3:0 32 0] [97] 0 0
D 5.632000000 _2_ RTR  IFQ 2 68 cbr 230 [0 0 0 0] ------- [2:0 3:0 30 0] [33] 0 0
s 5.644000000 _0_ AGT  --- 1 197 cbr 210 [0 0 0 0] ------- [0:0 1:0 32 0] [99] 0 0
r 5.647153767 _1_ AGT  --- 1 197 cbr 230 [5 1 0 0] ------- [0:0 1:0 30 1] [99] 1 0
s 5.688000000 _2_ AGT  --- 2 198 cbr 210 [0 0 0 0] ------- [2:0 3:0 32 0] [98] 0 0
D 5.688000000 _2_ RTR  IFQ 2 70 cbr 230 [0 0 0 0] ------- [2:0 3:0 30 0] [34] 0 0
s 5.700000000 _0_ AGT  --- 1 199 cbr 210 [0 0 0 0] ------- [0:0 1:0 32 0] [100] 0 0
r 5.731153767 _1_ AGT  --- 1 199 cbr 230 [5 1 0 0] ------- [0:0 1:0 30 1] [100] 1 0
s 5.744000000 _2_ AGT  --- 2 200 cbr 210 [0 0 0 0] ------- [2:0 3:0 32 0] [99] 0 0
D 5.744000000 _2_ RTR  IFQ 2 72 cbr 230 [0 0 0 0] ------- [2:0 3:0 30 0] [35] 0 0
s 5.756000000 _0_ AGT  --- 1 201 cbr 210 [0 0 0 0] ------- [0:0 1:0 32 0] [101] 0 0
r 5.773153767 _1_ AGT  --- 1 201 cbr 230 [5 1 0 0] ------- [0:0 1:0 30 1] [101] 1 0
s 5.800000000 _2_ AGT  --- 2 202 cbr 210 [0 0 0 0] ------- [2:0 3:0 32 0] [100] 0 0
D 5.800000000 _2_ RTR  IFQ 2 74 cbr 230 [0 0 0 0] ------- [2:0 3:0 30 0] [36] 0 0
s 5.812000000 _0_ AGT  --- 1 203 cbr 210 [0 0 0 0] ------- [0:0 1:0 32 0] [102] 0 0
r 5.815153767 _1_ AGT  --- 1 203 cbr 230 [5 1 0 0] ------- [0:0 1:0 30 1] [102] 1 0
s 5.856000000 _2_ AGT  --- 2 204 cbr 210 [0 0 0 0] ------- [2:0 3:0 32 0] [101] 0 0
D 5.856000000 _2_ RTR  IFQ 2 76 cbr 230 [0 0 0 0] ------- [2:0 3:0 30 0] [37] 0 0
s 5.868000000 _0_ AGT  --- 1 205 cbr 210 [0 0 0 0] ------- [0:0 1:0 32 0] [103] 0 0
r 5.899153767 _1_ AGT  --- 1 205 cbr 230 [5 1 0 0] ------- [0:0 1:0 30 1] [103] 1 0
s 5.912000000 _2_ AGT  --- 2 206 cbr 210 [0 0 0 0] ------- [2:0 3:0 32 0] [102] 0 0
D 5.912000000 _2_ RTR  IFQ 2 78 cbr 230 [0 0 0 0] ------- [2:0 3:0 30 0] [38] 0 0
s 5.924000000 _0_ AGT  --- 1 207 cbr 210 [0 0 0 0] ------- [0:0 1:0 32 0] [104] 0 0
r 5.941153767 _1_ AGT  --- 1 207 cbr 230 [5 1 0 0] ------- [0:0 1:0 30 1] [104] 1 0
s 5.968000000 _2_ AGT  --- 2 208 cbr 210 [0 0 0 0] ------- [2:0 3:0 32 0] [103] 0 0
D 5.968000000 _2_ RTR  IFQ 2 80 cbr 230 [0 0 0 0] ------- [2:0 3:0 30 0] [39] 0 0
s 5.980000000 _0_ AGT  --- 1 209 cbr 210 [0 0 0 0] ------- [0:0 1:0 32 0] [105] 0 0
r 5.983153767 _1_ AGT  --- 1 209 cbr 230 [5 1 0 0] ------- [0:0 1:0 30 1] [105] 1 0
s 6.024000000 _2_ AGT  --- 2 210 cbr 210 [0 0 0 0] ------- [2:0 3:0 32 0] [104] 0 0
D 6.024000000 _2_ RTR  IFQ 2 82 cbr 230 [0 0 0 0] ------- [2:0 3:0 30 0] [40] 0 0
s 6.036000000 _0_ AGT  --- 1 211 cbr 210 [0 0 0 0] ------- [0:0 1:0 32 0] [106] 0 0
r 6.067153767 _1_ AGT  --- 1 211 cbr 230 [5 1 0 0] ------- [0:0 1:0 30 1] [106] 1 0
s 6.080000000 _2_ AGT  --- 2 212 cbr 210 [0 0 0 0] ------- [2:0 3:0 32 0] [105] 0 0
D 6.080000000 _2_ RTR  IFQ 2 84 cbr 230 [0 0 0 0] ------- [2:0 3:0 30 0] [41] 0 0
s 6.092000000 _0_ AGT  --- 1 213 cbr 210 [0 0 0 0] ------- [0:0 1:0 32 0] [107] 0 0
r 6.109153767 _1_ AGT  --- 1 213 cbr 230 [5 1 0 0] ------- [0:0 1:0 30 1] [107] 1 0