s 49.306123168 _13_ AGT  --- 1 0 cbr 210 [0 0 0 0] ------- [13:0 21:0 32 0] [0] 0 0
s 49.322923168 _13_ AGT  --- 1 1 cbr 210 [0 0 0 0] ------- [13:0 21:0 32 0] [1] 0 0
s 49.339723168 _13_ AGT  --- 1 2 cbr 210 [0 0 0 0] ------- [13:0 21:0 32 0] [2] 0 0
s 49.356523168 _13_ AGT  --- 1 3 cbr 210 [0 0 0 0] ------- [13:0 21:0 32 0] [3] 0 0
s 49.373323168 _13_ AGT  --- 1 4 cbr 210 [0 0 0 0] ------- [13:0 21:0 32 0] [4] 0 0
s 49.390123168 _13_ AGT  --- 1 5 cbr 210 [0 0 0 0] ------- [13:0 21:0 32 0] [5] 0 0
s 49.406923168 _13_ AGT  --- 1 6 cbr 210 [0 0 0 0] ------- [13:0 21:0 32 0] [6] 0 0
s 49.423723168 _13_ AGT  --- 1 7 cbr 210 [0 0 0 0] ------- [13:0 21:0 32 0] [7] 0 0
s 49.440523168 _13_ AGT  --- 1 8 cbr 210 [0 0 0 0] ------- [13:0 21:0 32 0] [8] 0 0
s 49.457323168 _13_ AGT  --- 1 9 cbr 210 [0 0 0 0] ------- [13:0 21:0 32 0] [9] 0 0
s 49.474123168 _13_ AGT  --- 1 10 cbr 210 [0 0 0 0] ------- [13:0 21:0 32 0] [10] 0 0
s 49.490923168 _13_ AGT  --- 1 11 cbr 210 [0 0 0 0] ------- [13:0 21:0 32 0] [11] 0 0
s 49.507723168 _13_ AGT  --- 1 12 cbr 210 [0 0 0 0] ------- [13:0 21:0 32 0] [12] 0 0
s 49.524523168 _13_ AGT  --- 1 13 cbr 210 [0 0 0 0] ------- [13:0 21:0 32 0] [13] 0 0
s 49.541323168 _13_ AGT  --- 1 14 cbr 210 [0 0 0 0] ------- [13:0 21:0 32 0] [14] 0 0
s 49.558123168 _13_ AGT  --- 1 15 cbr 210 [0 0 0 0] ------- [13:0 21:0 32 0] [15] 0 0
s 49.574923168 _13_ AGT  --- 1 16 cbr 210 [0 0 0 0] ------- [13:0 21:0 32 0] [16] 0 0
s 49.591723168 _13_ AGT  --- 1 17 cbr 210 [0 0 0 0] ------- [13:0 21:0 32 0] [17] 0 0
s 49.608523168 _13_ AGT  --- 1 18 cbr 210 [0 0 0 0] ------- [13:0 21:0 32 0] [18] 0 0
s 49.625323168 _13_ AGT  --- 1 19 cbr 210 [0 0 0 0] ------- [13:0 21:0 32 0] [19] 0 0
s 49.642123168 _13_ AGT  --- 1 20 cbr 210 [0 0 0 0] ------- [13:0 21:0 32 0] [20] 0 0
s 49.658923168 _13_ AGT  --- 1 21 cbr 210 [0 0 0 0] ------- [13:0 21:0 32 0] [21] 0 0
s 49.675723168 _13_ AGT  --- 1 22 cbr 210 [0 0 0 0] ------- [13:0 21:0 32 0] [22] 0 0
s 49.692523168 _13_ AGT  --- 1 23 cbr 210 [0 0 0 0] ------- [13:0 21:0 32 0] [23] 0 0
s 49.709323168 _13_ AGT  --- 1 24 cbr 210 [0 0 0 0] ------- [13:0 21:0 32 0] [24] 0 0
s 49.726123168 _13_ AGT  --- 1 25 cbr 210 [0 0 0 0] ------- [13:0 21:0 32 0] [25] 0 0
s 49.742923168 _13_ AGT  --- 1 26 cbr 210 [0 0 0 0] ------- [13:0 21:0 32 0] [26] 0 0
r 49.753153667 _21_ AGT  --- 1 0 cbr 230 [5 15 10 0] ------- [13:0 21:0 27 21] [0] 4 0
s 49.759723168 _13_ AGT  --- 1 27 cbr 210 [0 0 0 0] ------- [13:0 21:0 32 0] [27] 0 0
s 49.776523168 _13_ AGT  --- 1 28 cbr 210 [0 0 0 0] ------- [13:0 21:0 32 0] [28] 0 0
s 49.793323168 _13_ AGT  --- 1 29 cbr 210 [0 0 0 0] ------- [13:0 21:0 32 0] [29] 0 0
r 49.801153667 _21_ AGT  --- 1 1 cbr 230 [5 15 10 0] ------- [13:0 21:0 27 21] [1] 4 0
s 49.810123168 _13_ AGT  --- 1 30 cbr 210 [0 0 0 0] ------- [13:0 21:0 32 0] [30] 0 0
s 49.826923168 _13_ AGT  --- 1 31 cbr 210 [0 0 0 0] ------- [13:0 21:0 32 0] [31] 0 0
s 49.843723168 _13_ AGT  --- 1 32 cbr 210 [0 0 0 0] ------- [13:0 21:0 32 0] [32] 0 0
r 49.849153667 _21_ AGT  --- 1 26 cbr 230 [5 15 10 0] ------- [13:0 21:0 27 21] [26] 4 0
s 49.860523168 _13_ AGT  --- 1 33 cbr 210 [0 0 0 0] ------- [13:0 21:0 32 0] [33] 0 0
s 49.877323168 _13_ AGT  --- 1 34 cbr 210 [0 0 0 0] ------- [13:0 21:0 32 0] [34] 0 0
s 49.894123168 _13_ AGT  --- 1 35 cbr 210 [0 0 0 0] ------- [13:0 21:0 32 0] [35] 0 0
r 49.897153667 _21_ AGT  --- 1 4 cbr 230 [5 15 10 0] ------- [13:0 21:0 27 21] [4] 4 0
s 49.910923168 _13_ AGT  --- 1 36 cbr 210 [0 0 0 0] ------- [13:0 21:0 32 0] [36] 0 0
s 49.927723168 _13_ AGT  --- 1 37 cbr 210 [0 0 0 0] ------- [13:0 21:0 32 0] [37] 0 0
s 49.944523168 _13_ AGT  --- 1 38 cbr 210 [0 0 0 0] ------- [13:0 21:0 32 0] [38] 0 0
r 49.945153667 _21_ AGT  --- 1 5 cbr 230 [5 15 10 0] ------- [13:0 21:0 27 21] [5] 4 0
s 49.961323168 _13_ AGT  --- 1 39 cbr 210 [0 0 0 0] ------- [13:0 21:0 32 0] [39] 0 0
s 49.978123168 _13_ AGT  --- 1 40 cbr 210 [0 0 0 0] ------- [13:0 21:0 32 0] [40] 0 0
r 49.993153667 _21_ AGT  --- 1 28 cbr 230 [5 15 10 0] ------- [13:0 21:0 27 21] [28] 4 0
s 49.994923168 _13_ AGT  --- 1 41 cbr 210 [0 0 0 0] ------- [13:0 21:0 32 0] [41] 0 0
s 50.011723168 _13_ AGT  --- 1 42 cbr 210 [0 0 0 0] ------- [13:0 21:0 32 0] [42] 0 0
s 50.028523168 _13_ AGT  --- 1 43 cbr 210 [0 0 0 0] ------- [13:0 21:0 32 0] [43] 0 0
r 50.041153667 _21_ AGT  --- 1 29 cbr 230 [5 15 10 0] ------- [13:0 21:0 27 21] [29] 4 0
s 50.045323168 _13_ AGT  --- 1 44 cbr 210 [0 0 0 0] ------- [13:0 21:0 32 0] [44] 0 0
s 50.062123168 _13_ AGT  --- 1 45 cbr 210 [0 0 0 0] ------- [13:0 21:0 32 0] [45] 0 0
s 50.078923168 _13_ AGT  --- 1 46 cbr 210 [0 0 0 0] ------- [13:0 21:0 32 0] [46] 0 0
r 50.089153667 _21_ AGT  --- 1 9 cbr 230 [5 15 10 0] ------- [13:0 21:0 27 21] [9] 4 0
s 50.095723168 _13_ AGT  --- 1 47 cbr 210 [0 0 0 0] ------- [13:0 21:0 32 0] [47] 0 0
s 50.112523168 _13_ AGT  --- 1 48 cbr 210 [0 0 0 0] ------- [13:0 21:0 32 0] [48] 0 0
s 50.129323168 _13_ AGT  --- 1 49 cbr 210 [0 0 0 0] ------- [13:0 21:0 32 0] [49] 0 0
r 50.137153667 _21_ AGT  --- 1 10 cbr 230 [5 15 10 0] ------- [13:0 21:0 27 21] [10] 4 0
s 50.146123168 _13_ AGT  --- 1 50 cbr 210 [0 0 0 0] ------- [13:0 21:0 32 0] [50] 0 0
s 50.162923168 _13_ AGT  --- 1 51 cbr 210 [0 0 0 0] ------- [13:0 21:0 32 0] [51] 0 0
s 50.179723168 _13_ AGT  --- 1 52 cbr 210 [0 0 0 0] ------- [13:0 21:0 32 0] [52] 0 0
r 50.185153667 _21_ AGT  --- 1 31 cbr 230 [5 15 10 0] ------- [13:0 21:0 27 21] [31] 4 0
s 50.196523168 _13_ AGT  --- 1 53 cbr 210 [0 0 0 0] ------- [13:0 21:0 32 0] [53] 0 0
s 50.213323168 _13_ AGT  --- 1 54 cbr 210 [0 0 0 0] ------- [13:0 21:0 32 0] [54] 0 0
s 50.230123168 _13_ AGT  --- 1 55 cbr 210 [0 0 0 0] ------- [13:0 21:0 32 0] [55] 0 0
r 50.233153667 _21_ AGT  --- 1 32 cbr 230 [5 15 10 0] ------- [13:0 21:0 27 21] [32] 4 0
s 50.246923168 _13_ AGT  --- 1 56 cbr 210 [0 0 0 0] ------- [13:0 21:0 32 0] [56] 0 0
s 50.263723168 _13_ AGT  --- 1 57 cbr 210 [0 0 0 0] ------- [13:0 21:0 32 0] [57] 0 0
s 50.280523168 _13_ AGT  --- 1 58 cbr 210 [0 0 0 0] ------- [13:0 21:0 32 0] [58] 0 0
r 50.281153667 _21_ AGT  --- 1 14 cbr 230 [5 15 10 0] ------- [13:0 21:0 27 21] [14] 4 0
s 50.297323168 _13_ AGT  --- 1 59 cbr 210 [0 0 0 0] ------- [13:0 21:0 32 0] [59] 0 0
s 50.314123168 _13_ AGT  --- 1 60 cbr 210 [0 0 0 0] ------- [13:0 21:0 32 0] [60] 0 0
r 50.329153667 _21_ AGT  --- 1 15 cbr 230 [5 15 10 0] ------- [13:0 21:0 27 21] [15] 4 0
s 50.330923168 _13_ AGT  --- 1 61 cbr 210 [0 0 0 0] ------- [13:0 21:0 32 0] [61] 0 0
s 50.347723168 _13_ AGT  --- 1 62 cbr 210 [0 0 0 0] ------- [13:0 21:0 32 0] [62] 0 0
s 50.364523168 _13_ AGT  --- 1 63 cbr 210 [0 0 0 0] ------- [13:0 21:0 32 0] [63] 0 0
r 50.377153667 _21_ AGT  --- 1 34 cbr 230 [5 15 10 0] ------- [13:0 21:0 27 21] [34] 4 0
s 50.381323168 _13_ AGT  --- 1 64 cbr 210 [0 0 0 0] ------- [13:0 21:0 32 0] [64] 0 0
s 50.398123168 _13_ AGT  --- 1 65 cbr 210 [0 0 0 0] ------- [13:0 21:0 32 0] [65] 0 0
s 50.414923168 _13_ AGT  --- 1 66 cbr 210 [0 0 0 0] ------- [13:0 21:0 32 0] [66] 0 0
r 50.425153667 _21_ AGT  --- 1 35 cbr 230 [5 15 10 0] ------- [13:0 21:0 27 21] [35] 4 0
s 50.431723168 _13_ AGT  --- 1 67 cbr 210 [0 0 0 0] ------- [13:0 21:0 32 0] [67] 0 0
s 50.448523168 _13_ AGT  --- 1 68 cbr 210 [0 0 0 0] ------- [13:0 21:0 32 0] [68] 0 0
s 50.465323168 _13_ AGT  --- 1 69 cbr 210 [0 0 0 0] ------- [13:0 21:0 32 0] [69] 0 0
r 50.473153667 _21_ AGT  --- 1 19 cbr 230 [5 15 10 0] ------- [13:0 21:0 27 21] [19] 4 0
s 50.482123168 _13_ AGT  --- 1 70 cbr 210 [0 0 0 0] ------- [13:0 21:0 32 0] [70] 0 0
s 50.498923168 _13_ AGT  --- 1 71 cbr 210 [0 0 0 0] ------- [13:0 21:0 32 0] [71] 0 0
s 50.515723168 _13_ AGT  --- 1 72 cbr 210 [0 0 0 0] ------- [13:0 21:0 32 0] [72] 0 0
r 50.521153667 _21_ AGT  --- 1 20 cbr 230 [5 15 10 0] ------- [13:0 21:0 27 21] [20] 4 0
s 50.532523168 _13_ AGT  --- 1 73 cbr 210 [0 0 0 0] ------- [13:0 21:0 32 0] [73] 0 0
s 50.549323168 _13_ AGT  --- 1 74 cbr 210 [0 0 0 0] ------- [13:0 21:0 32 0] [74] 0 0
s 50.566123168 _13_ AGT  --- 1 75 cbr 210 [0 0 0 0] ------- [13:0 21:0 32 0] [75] 0 0
r 50.569153667 _21_ AGT  --- 1 37 cbr 230 [5 15 10 0] ------- [13:0 21:0 27 21] [37] 4 0
s 50.582923168 _13_ AGT  --- 1 76 cbr 210 [0 0 0 0] ------- [13:0 21:0 32 0] [76] 0 0
s 50.599723168 _13_ AGT  --- 1 77 cbr 210 [0 0 0 0] ------- [13:0 21:0 32 0] [77] 0 0
s 50.616523168 _13_ AGT  --- 1 78 cbr 210 [0 0 0 0] ------- [13:0 21:0 32 0] [78] 0 0
r 50.617153667 _21_ AGT  --- 1 38 cbr 230 [5 15 10 0] ------- [13:0 21:0 27 21] [38] 4 0
s 50.633323168 _13_ AGT  --- 1 79 cbr 210 [0 0 0 0] ------- [13:0 21:0 32 0] [79] 0 0
s 50.650123168 _13_ AGT  --- 1 80 cbr 210 [0 0 0 0] ------- [13:0 21:0 32 0] [80] 0 0
r 50.665153667 _21_ AGT  --- 1 24 cbr 230 [5 15 10 0] ------- [13:0 21:0 27 21] [24] 4 0
s 50.666923168 _13_ AGT  --- 1 81 cbr 210 [0 0 0 0] ------- [13:0 21:0 32 0] [81] 0 0
s 50.683723168 _13_ AGT  --- 1 82 cbr 210 [0 0 0 0] ------- [13:0 21:0 32 0] [82] 0 0
s 50.700523168 _13_ AGT  --- 1 83 cbr 210 [0 0 0 0] ------- [13:0 21:0 32 0] [83] 0 0
r 50.713153667 _21_ AGT  --- 1 40 cbr 230 [5 15 10 0] ------- [13:0 21:0 27 21] [40] 4 0
s 50.717323168 _13_ AGT  --- 1 84 cbr 210 [0 0 0 0] ------- [13:0 21:0 32 0] [84] 0 0
s 50.734123168 _13_ AGT  --- 1 85 cbr 210 [0 0 0 0] ------- [13:0 21:0 32 0] [85] 0 0
s 50.750923168 _13_ AGT  --- 1 86 cbr 210 [0 0 0 0] ------- [13:0 21:0 32 0] [86] 0 0
r 50.761153667 _21_ AGT  --- 1 42 cbr 230 [5 15 10 0] ------- [13:0 21:0 27 21] [42] 4 0
s 50.767723168 _13_ AGT  --- 1 87 cbr 210 [0 0 0 0] ------- [13:0 21:0 32 0] [87] 0 0
s 50.784523168 _13_ AGT  --- 1 88 cbr 210 [0 0 0 0] ------- [13:0 21:0 32 0] [88] 0 0
s 50.801323168 _13_ AGT  --- 1 89 cbr 210 [0 0 0 0] ------- [13:0 21:0 32 0] [89] 0 0
r 50.809153667 _21_ AGT  --- 1 44 cbr 230 [5 15 10 0] ------- [13:0 21:0 27 21] [44] 4 0
s 50.818123168 _13_ AGT  --- 1 90 cbr 210 [0 0 0 0] ------- [13:0 21:0 32 0] [90] 0 0
s 50.834923168 _13_ AGT  --- 1 91 cbr 210 [0 0 0 0] ------- [13:0 21:0 32 0] [91] 0 0
s 50.851723168 _13_ AGT  --- 1 92 cbr 210 [0 0 0 0] ------- [13:0 21:0 32 0] [92] 0 0
r 50.857153667 _21_ AGT  --- 1 46 cbr 230 [5 15 10 0] ------- [13:0 21:0 27 21] [46] 4 0
s 50.868523168 _13_ AGT  --- 1 93 cbr 210 [0 0 0 0] ------- [13:0 21:0 32 0] [93] 0 0
s 50.885323168 _13_ AGT  --- 1 94 cbr 210 [0 0 0 0] ------- [13:0 21:0 32 0] [94] 0 0
s 50.902123168 _13_ AGT  --- 1 95 cbr 210 [0 0 0 0] ------- [13:0 21:0 32 0] [95] 0 0
r 50.905153667 _21_ AGT  --- 1 48 cbr 230 [5 15 10 0] ------- [13:0 21:0 27 21] [48] 4 0
s 50.918923168 _13_ AGT  --- 1 96 cbr 210 [0 0 0 0] ------- [13:0 21:0 32 0] [96] 0 0
s 50.935723168 _13_ AGT  --- 1 97 cbr 210 [0 0 0 0] ------- [13:0 21:0 32 0] [97] 0 0
s 50.952523168 _13_ AGT  --- 1 98 cbr 210 [0 0 0 0] ------- [13:0 21:0 32 0] [98] 0 0
r 50.953153667 _21_ AGT  --- 1 50 cbr 230 [5 15 10 0] ------- [13:0 21:0 27 21] [50] 4 0
s 50.969323168 _13_ AGT  --- 1 99 cbr 210 [0 0 0 0] ------- [13:0 21:0 32 0] [99] 0 0
s 50.986123168 _13_ AGT  --- 1 100 cbr 210 [0 0 0 0] ------- [13:0 21:0 32 0] [100] 0 0
r 51.001153667 _21_ AGT  --- 1 52 cbr 230 [5 15 10 0] ------- [13:0 21:0 27 21] [52] 4 0
s 51.002923168 _13_ AGT  --- 1 101 cbr 210 [0 0 0 0] ------- [13:0 21:0 32 0] [101] 0 0
s 51.019723168 _13_ AGT  --- 1 102 cbr 210 [0 0 0 0] ------- [13:0 21:0 32 0] [102] 0 0
s 51.036523168 _13_ AGT  --- 1 103 cbr 210 [0 0 0 0] ------- [13:0 21:0 32 0] [103] 0 0
r 51.049153667 _21_ AGT  --- 1 54 cbr 230 [5 15 10 0] ------- [13:0 21:0 27 21] [54] 4 0
s 51.053323168 _13_ AGT  --- 1 104 cbr 210 [0 0 0 0] ------- [13:0 21:0 32 0] [104] 0 0
s 51.070123168 _13_ AGT  --- 1 105 cbr 210 [0 0 0 0] ------- [13:0 21:0 32 0] [105] 0 0
s 51.086923168 _13_ AGT  --- 1 106 cbr 210 [0 0 0 0] ------- [13:0 21:0 32 0] [106] 0 0
r 51.097153667 _21_ AGT  --- 1 56 cbr 230 [5 15 10 0] ------- [13:0 21:0 27 21] [56] 4 0
s 51.103723168 _13_ AGT  --- 1 107 cbr 210 [0 0 0 0] ------- [13:0 21:0 32 0] [107] 0 0
s 51.120523168 _13_ AGT  --- 1 108 cbr 210 [0 0 0 0] ------- [13:0 21:0 32 0] [108] 0 0
s 51.137323168 _13_ AGT  --- 1 109 cbr 210 [0 0 0 0] ------- [13:0 21:0 32 0] [109] 0 0
r 51.145153667 _21_ AGT  --- 1 58 cbr 230 [5 15 10 0] ------- [13:0 21:0 27 21] [58] 4 0
s 51.154123168 _13_ AGT  --- 1 110 cbr 210 [0 0 0 0] ------- [13:0 21:0 32 0] [110] 0 0
s 51.170923168 _13_ AGT  --- 1 111 cbr 210 [0 0 0 0] ------- [13:0 21:0 32 0] [111] 0 0
s 51.187723168 _13_ AGT  --- 1 112 cbr 210 [0 0 0 0] ------- [13:0 21:0 32 0] [112] 0 0
r 51.193153667 _21_ AGT  --- 1 60 cbr 230 [5 15 10 0] ------- [13:0 21:0 27 21] [60] 4 0
s 51.204523168 _13_ AGT  --- 1 113 cbr 210 [0 0 0 0] ------- [13:0 21:0 32 0] [113] 0 0
s 51.221323168 _13_ AGT  --- 1 114 cbr 210 [0 0 0 0] ------- [13:0 21:0 32 0] [114] 0 0
s 51.238123168 _13_ AGT  --- 1 115 cbr 210 [0 0 0 0] ------- [13:0 21:0 32 0] [115] 0 0
r 51.241153667 _21_ AGT  --- 1 62 cbr 230 [5 15 10 0] ------- [13:0 21:0 27 21] [62] 4 0
s 51.254923168 _13_ AGT  --- 1 116 cbr 210 [0 0 0 0] ------- [13:0 21:0 32 0] [116] 0 0
s 51.271723168 _13_ AGT  --- 1 117 cbr 210 [0 0 0 0] ------- [13:0 21:0 32 0] [117] 0 0
s 51.288523168 _13_ AGT  --- 1 118 cbr 210 [0 0 0 0] ------- [13:0 21:0 32 0] [118] 0 0
r 51.289153667 _21_ AGT  --- 1 64 cbr 230 [5 15 10 0] ------- [13:0 21:0 27 21] [64] 4 0
s 51.305323168 _13_ AGT  --- 1 119 cbr 210 [0 0 0 0] ------- [13:0 21:0 32 0] [119] 0 0
s 51.322123168 _13_ AGT  --- 1 120 cbr 210 [0 0 0 0] ------- [13:0 21:0 32 0] [120] 0 0
r 51.337153667 _21_ AGT  --- 1 66 cbr 230 [5 15 10 0] ------- [13:0 21:0 27 21] [66] 4 0
s 51.338923168 _13_ AGT  --- 1 121 cbr 210 [0 0 0 0] ------- [13:0 21:0 32 0] [121] 0 0
s 51.355723168 _13_ AGT  --- 1 122 cbr 210 [0 0 0 0] ------- [13:0 21:0 32 0] [122] 0 0
s 51.372523168 _13_ AGT  --- 1 123 cbr 210 [0 0 0 0] ------- [13:0 21:0 32 0] [123] 0 0
r 51.385153667 _21_ AGT  --- 1 68 cbr 230 [5 15 10 0] ------- [13:0 21:0 27 21] [68] 4 0
s 51.389323168 _13_ AGT  --- 1 124 cbr 210 [0 0 0 0] ------- [13:0 21:0 32 0] [124] 0 0
s 51.406123168 _13_ AGT  --- 1 125 cbr 210 [0 0 0 0] ------- [13:0 21:0 32 0] [125] 0 0
s 51.422923168 _13_ AGT  --- 1 126 cbr 210 [0 0 0 0] ------- [13:0 21:0 32 0] [126] 0 0
r 51.433153667 _21_ AGT  --- 1 70 cbr 230 [5 15 10 0] ------- [13:0 21:0 27 21] [70] 4 0
s 51.439723168 _13_ AGT  --- 1 127 cbr 210 [0 0 0 0] ------- [13:0 21:0 32 0] [127] 0 0
s 51.456523168 _13_ AGT  --- 1 128 cbr 210 [0 0 0 0] ------- [13:0 21:0 32 0] [128] 0 0
s 51.473323168 _13_ AGT  --- 1 129 cbr 210 [0 0 0 0] ------- [13:0 21:0 32 0] [129] 0 0
r 51.481153667 _21_ AGT  --- 1 72 cbr 230 [5 15 10 0] ------- [13:0 21:0 27 21] [72] 4 0
s 51.490123168 _13_ AGT  --- 1 130 cbr 210 [0 0 0 0] ------- [13:0 21:0 32 0] [130] 0 0
s 51.506923168 _13_ AGT  --- 1 131 cbr 210 [0 0 0 0] ------- [13:0 21:0 32 0] [131] 0 0
s 51.523723168 _13_ AGT  --- 1 132 cbr 210 [0 0 0 0] ------- [13:0 21:0 32 0] [132] 0 0
r 51.529153667 _21_ AGT  --- 1 74 cbr 230 [5 15 10 0] ------- [13:0 21:0 27 21] [74] 4 0
s 51.540523168 _13_ AGT  --- 1 133 cbr 210 [0 0 0 0] ------- [13:0 21:0 32 0] [133] 0 0
s 51.557323168 _13_ AGT  --- 1 134 cbr 210 [0 0 0 0] ------- [13:0 21:0 32 0] [134] 0 0
s 51.574123168 _13_ AGT  --- 1 135 cbr 210 [0 0 0 0] ------- [13:0 21:0 32 0] [135] 0 0
r 51.577153667 _21_ AGT  --- 1 76 cbr 230 [5 15 10 0] ------- [13:0 21:0 27 21] [76] 4 0
s 51.590923168 _13_ AGT  --- 1 136 cbr 210 [0 0 0 0] ------- [13:0 21:0 32 0] [136] 0 0
s 51.607723168 _13_ AGT  --- 1 137 cbr 210 [0 0 0 0] ------- [13:0 21:0 32 0] [137] 0 0
s 51.624523168 _13_ AGT  --- 1 138 cbr 210 [0 0 0 0] ------- [13:0 21:0 32 0] [138] 0 0
r 51.625153667 _21_ AGT  --- 1 78 cbr 230 [5 15 10 0] ------- [13:0 21:0 27 21] [78] 4 0
s 51.641323168 _13_ AGT  --- 1 139 cbr 210 [0 0 0 0] ------- [13:0 21:0 32 0] [139] 0 0
s 51.658123168 _13_ AGT  --- 1 140 cbr 210 [0 0 0 0] ------- [13:0 21:0 32 0] [140] 0 0
r 51.673153667 _21_ AGT  --- 1 80 cbr 230 [5 15 10 0] ------- [13:0 21:0 27 21] [80] 4 0
s 51.674923168 _13_ AGT  --- 1 141 cbr 210 [0 0 0 0] ------- [13:0 21:0 32 0] [141] 0 0
s 51.691723168 _13_ AGT  --- 1 142 cbr 210 [0 0 0 0] ------- [13:0 21:0 32 0] [142] 0 0
s 51.708523168 _13_ AGT  --- 1 143 cbr 210 [0 0 0 0] ------- [13:0 21:0 32 0] [143] 0 0
r 51.721153667 _21_ AGT  --- 1 82 cbr 230 [5 15 10 0] ------- [13:0 21:0 27 21] [82] 4 0
s 51.725323168 _13_ AGT  --- 1 144 cbr 210 [0 0 0 0] ------- [13:0 21:0 32 0] [144] 0 0
s 51.742123168 _13_ AGT  --- 1 145 cbr 210 [0 0 0 0] ------- [13:0 21:0 32 0] [145] 0 0
s 51.758923168 _13_ AGT  --- 1 146 cbr 210 [0 0 0 0] ------- [13:0 21:0 32 0] [146] 0 0
r 51.769153667 _21_ AGT  --- 1 84 cbr 230 [5 15 10 0] ------- [13:0 21:0 27 21] [84] 4 0
s 51.775723168 _13_ AGT  --- 1 147 cbr 210 [0 0 0 0] ------- [13:0 21:0 32 0] [147] 0 0
s 51.792523168 _13_ AGT  --- 1 148 cbr 210 [0 0 0 0] ------- [13:0 21:0 32 0] [148] 0 0
s 51.809323168 _13_ AGT  --- 1 149 cbr 210 [0 0 0 0] ------- [13:0 21:0 32 0] [149] 0 0
r 51.817153667 _21_ AGT  --- 1 86 cbr 230 [5 15 10 0] ------- [13:0 21:0 27 21] [86] 4 0
s 51.826123168 _13_ AGT  --- 1 150 cbr 210 [0 0 0 0] ------- [13:0 21:0 32 0] [150] 0 0
s 51.842923168 _13_ AGT  --- 1 151 cbr 210 [0 0 0 0] ------- [13:0 21:0 32 0] [151] 0 0
s 51.859723168 _13_ AGT  --- 1 152 cbr 210 [0 0 0 0] ------- [13:0 21:0 32 0] [152] 0 0
r 51.865153667 _21_ AGT  --- 1 88 cbr 230 [5 15 10 0] ------- [13:0 21:0 27 21] [88] 4 0
s 51.876523168 _13_ AGT  --- 1 153 cbr 210 [0 0 0 0] ------- [13:0 21:0 32 0] [153] 0 0
s 51.893323168 _13_ AGT  --- 1 154 cbr 210 [0 0 0 0] ------- [13:0 21:0 32 0] [154] 0 0
s 51.910123168 _13_ AGT  --- 1 155 cbr 210 [0 0 0 0] ------- [13:0 21:0 32 0] [155] 0 0
r 51.913153667 _21_ AGT  --- 1 90 cbr 230 [5 15 10 0] ------- [13:0 21:0 27 21] [90] 4 0
s 51.926923168 _13_ AGT  --- 1 156 cbr 210 [0 0 0 0] ------- [13:0 21:0 32 0] [156] 0 0
s 51.943723168 _13_ AGT  --- 1 157 cbr 210 [0 0 0 0] ------- [13:0 21:0 32 0] [157] 0 0
s 51.960523168 _13_ AGT  --- 1 158 cbr 210 [0 0 0 0] ------- [13:0 21:0 32 0] [158] 0 0
r 51.961153667 _21_ AGT  --- 1 92 cbr 230 [5 15 10 0] ------- [13:0 21:0 27 21] [92] 4 0
s 51.977323168 _13_ AGT  --- 1 159 cbr 210 [0 0 0 0] ------- [13:0 21:0 32 0] [159] 0 0
s 51.994123168 _13_ AGT  --- 1 160 cbr 210 [0 0 0 0] ------- [13:0 21:0 32 0] [160] 0 0
r 52.009153667 _21_ AGT  --- 1 94 cbr 230 [5 15 10 0] ------- [13:0 21:0 27 21] [94] 4 0
s 52.010923168 _13_ AGT  --- 1 161 cbr 210 [0 0 0 0] ------- [13:0 21:0 32 0] [161] 0 0
s 52.027723168 _13_ AGT  --- 1 162 cbr 210 [0 0 0 0] ------- [13:0 21:0 32 0] [162] 0 0
s 52.044523168 _13_ AGT  --- 1 163 cbr 210 [0 0 0 0] ------- [13:0 21:0 32 0] [163] 0 0
r 52.057153667 _21_ AGT  --- 1 96 cbr 230 [5 15 10 0] ------- [13:0 21:0 27 21] [96] 4 0
s 52.061323168 _13_ AGT  --- 1 164 cbr 210 [0 0 0 0] ------- [13:0 21:0 32 0] [164] 0 0
s 52.078123168 _13_ AGT  --- 1 165 cbr 210 [0 0 0 0] ------- [13:0 21:0 32 0] [165] 0 0
s 52.094923168 _13_ AGT  --- 1 166 cbr 210 [0 0 0 0] ------- [13:0 21:0 32 0] [166] 0 0
r 52.105153667 _21_ AGT  --- 1 98 cbr 230 [5 15 10 0] ------- [13:0 21:0 27 21] [98] 4 0
s 52.111723168 _13_ AGT  --- 1 167 cbr 210 [0 0 0 0] ------- [13:0 21:0 32 0] [167] 0 0
s 52.128523168 _13_ AGT  --- 1 168 cbr 210 [0 0 0 0] ------- [13:0 21:0 32 0] [168] 0 0
s 52.145323168 _13_ AGT  --- 1 169 cbr 210 [0 0 0 0] ------- [13:0 21:0 32 0] [169] 0 0
r 52.153153667 _21_ AGT  --- 1 100 cbr 230 [5 15 10 0] ------- [13:0 21:0 27 21] [100] 4 0
s 52.162123168 _13_ AGT  --- 1 170 cbr 210 [0 0 0 0] ------- [13:0 21:0 32 0] [170] 0 0
s 52.178923168 _13_ AGT  --- 1 171 cbr 210 [0 0 0 0] ------- [13:0 21:0 32 0] [171] 0 0
s 52.195723168 _13_ AGT  --- 1 172 cbr 210 [0 0 0 0] ------- [13:0 21:0 32 0] [172] 0 0
r 52.201153667 _21_ AGT  --- 1 102 cbr 230 [5 15 10 0] ------- [13:0 21:0 27 21] [102] 4 0
s 52.212523168 _13_ AGT  --- 1 173 cbr 210 [0 0 0 0] ------- [13:0 21:0 32 0] [173] 0 0
s 52.229323168 _13_ AGT  --- 1 174 cbr 210 [0 0 0 0] ------- [13:0 21:0 32 0] [174] 0 0
s 52.246123168 _13_ AGT  --- 1 175 cbr 210 [0 0 0 0] ------- [13:0 21:0 32 0] [175] 0 0
r 52.249153667 _21_ AGT  --- 1 104 cbr 230 [5 15 10 0] ------- [13:0 21:0 27 21] [104] 4 0
s 52.262923168 _13_ AGT  --- 1 176 cbr 210 [0 0 0 0] ------- [13:0 21:0 32 0] [176] 0 0
s 52.279723168 _13_ AGT  --- 1 177 cbr 210 [0 0 0 0] ------- [13:0 21:0 32 0] [177] 0 0
s 52.296523168 _13_ AGT  --- 1 178 cbr 210 [0 0 0 0] ------- [13:0 21:0 32 0] [178] 0 0
r 52.297153667 _21_ AGT  --- 1 106 cbr 230 [5 15 10 0] ------- [13:0 21:0 27 21] [106] 4 0
s 52.313323168 _13_ AGT  --- 1 179 cbr 210 [0 0 0 0] ------- [13:0 21:0 32 0] [179] 0 0
s 52.330123168 _13_ AGT  --- 1 180 cbr 210 [0 0 0 0] ------- [13:0 21:0 32 0] [180] 0 0
r 52.345153667 _21_ AGT  --- 1 108 cbr 230 [5 15 10 0] ------- [13:0 21:0 27 21] [108] 4 0
s 52.346923168 _13_ AGT  --- 1 181 cbr 210 [0 0 0 0] ------- [13:0 21:0 32 0] [181] 0 0
s 52.363723168 _13_ AGT  --- 1 182 cbr 210 [0 0 0 0] ------- [13:0 21:0 32 0] [182] 0 0
s 52.380523168 _13_ AGT  --- 1 183 cbr 210 [0 0 0 0] ------- [13:0 21:0 32 0] [183] 0 0
r 52.393153667 _21_ AGT  --- 1 110 cbr 230 [5 15 10 0] ------- [13:0 21:0 27 21] [110] 4 0
s 52.397323168 _13_ AGT  --- 1 184 cbr 210 [0 0 0 0] ------- [13:0 21:0 32 0] [184] 0 0
s 52.414123168 _13_ AGT  --- 1 185 cbr 210 [0 0 0 0] ------- [13:0 21:0 32 0] [185] 0 0
s 52.430923168 _13_ AGT  --- 1 186 cbr 210 [0 0 0 0] ------- [13:0 21:0 32 0] [186] 0 0
r 52.441153667 _21_ AGT  --- 1 112 cbr 230 [5 15 10 0] ------- [13:0 21:0 27 21] [112] 4 0
s 52.447723168 _13_ AGT  --- 1 187 cbr 210 [0 0 0 0] ------- [13:0 21:0 32 0] [187] 0 0
s 52.464523168 _13_ AGT  --- 1 188 cbr 210 [0 0 0 0] ------- [13:0 21:0 32 0] [188] 0 0
s 52.481323168 _13_ AGT  --- 1 189 cbr 210 [0 0 0 0] ------- [13:0 21:0 32 0] [189] 0 0
r 52.489153667 _21_ AGT  --- 1 114 cbr 230 [5 15 10 0] ------- [13:0 21:0 27 21] [114] 4 0
s 52.498123168 _13_ AGT  --- 1 190 cbr 210 [0 0 0 0] ------- [13:0 21:0 32 0] [190] 0 0
s 52.514923168 _13_ AGT  --- 1 191 cbr 210 [0 0 0 0] ------- [13:0 21:0 32 0] [191] 0 0
s 52.531723168 _13_ AGT  --- 1 192 cbr 210 [0 0 0 0] ------- [13:0 21:0 32 0] [192] 0 0
r 52.537153667 _21_ AGT  --- 1 116 cbr 230 [5 15 10 0] ------- [13:0 21:0 27 21] [116] 4 0
s 52.548523168 _13_ AGT  --- 1 193 cbr 210 [0 0 0 0] ------- [13:0 21:0 32 0] [193] 0 0
s 52.565323168 _13_ AGT  --- 1 194 cbr 210 [0 0 0 0] ------- [13:0 21:0 32 0] [194] 0 0
s 52.582123168 _13_ AGT  --- 1 195 cbr 210 [0 0 0 0] ------- [13:0 21:0 32 0] [195] 0 0
r 52.585153667 _21_ AGT  --- 1 118 cbr 230 [5 15 10 0] ------- [13:0 21:0 27 21] [118] 4 0
s 52.598923168 _13_ AGT  --- 1 196 cbr 210 [0 0 0 0] ------- [13:0 21:0 32 0] [196] 0 0
s 52.615723168 _13_ AGT  --- 1 197 cbr 210 [0 0 0 0] ------- [13:0 21:0 32 0] [197] 0 0
s 52.632523168 _13_ AGT  --- 1 198 cbr 210 [0 0 0 0] ------- [13:0 21:0 32 0] [198] 0 0
r 52.633153667 _21_ AGT  --- 1 120 cbr 230 [5 15 10 0] ------- [13:0 21:0 27 21] [120] 4 0
s 52.649323168 _13_ AGT  --- 1 199 cbr 210 [0 0 0 0] ------- [13:0 21:0 32 0] [199] 0 0
s 52.666123168 _13_ AGT  --- 1 200 cbr 210 [0 0 0 0] ------- [13:0 21:0 32 0] [200] 0 0
r 52.681153667 _21_ AGT  --- 1 122 cbr 230 [5 15 10 0] ------- [13:0 21:0 27 21] [122] 4 0
s 52.682923168 _13_ AGT  --- 1 201 cbr 210 [0 0 0 0] ------- [13:0 21:0 32 0] [201] 0 0
s 52.699723168 _13_ AGT  --- 1 202 cbr 210 [0 0 0 0] ------- [13:0 21:0 32 0] [202] 0 0
s 52.716523168 _13_ AGT  --- 1 203 cbr 210 [0 0 0 0] ------- [13:0 21:0 32 0] [203] 0 0
r 52.729153667 _21_ AGT  --- 1 124 cbr 230 [5 15 10 0] ------- [13:0 21:0 27 21] [124] 4 0
s 52.733323168 _13_ AGT  --- 1 204 cbr 210 [0 0 0 0] ------- [13:0 21:0 32 0] [204] 0 0
s 52.750123168 _13_ AGT  --- 1 205 cbr 210 [0 0 0 0] ------- [13:0 21:0 32 0] [205] 0 0
s 52.766923168 _13_ AGT  --- 1 206 cbr 210 [0 0 0 0] ------- [13:0 21:0 32 0] [206] 0 0
r 52.777153667 _21_ AGT  --- 1 126 cbr 230 [5 15 10 0] ------- [13:0 21:0 27 21] [126] 4 0
s 52.783723168 _13_ AGT  --- 1 207 cbr 210 [0 0 0 0] ------- [13:0 21:0 32 0] [207] 0 0
s 52.800523168 _13_ AGT  --- 1 208 cbr 210 [0 0 0 0] ------- [13:0 21:0 32 0] [208] 0 0
s 52.817323168 _13_ AGT  --- 1 209 cbr 210 [0 0 0 0] ------- [13:0 21:0 32 0] [209] 0 0
r 52.825153667 _21_ AGT  --- 1 128 cbr 230 [5 15 10 0] ------- [13:0 21:0 27 21] [128] 4 0
s 52.834123168 _13_ AGT  --- 1 210 cbr 210 [0 0 0 0] ------- [13:0 21:0 32 0] [210] 0 0
s 52.850923168 _13_ AGT  --- 1 211 cbr 210 [0 0 0 0] ------- [13:0 21:0 32 0] [211] 0 0
s 52.867723168 _13_ AGT  --- 1 212 cbr 210 [0 0 0 0] ------- [13:0 21:0 32 0] [212] 0 0
r 52.873153667 _21_ AGT  --- 1 130 cbr 230 [5 15 10 0] ------- [13:0 21:0 27 21] [130] 4 0
s 52.884523168 _13_ AGT  --- 1 213 cbr 210 [0 0 0 0] ------- [13:0 21:0 32 0] [213] 0 0
s 52.901323168 _13_ AGT  --- 1 214 cbr 210 [0 0 0 0] ------- [13:0 21:0 32 0] [214] 0 0
s 52.918123168 _13_ AGT  --- 1 215 cbr 210 [0 0 0 0] ------- [13:0 21:0 32 0] [215] 0 0
r 52.921153667 _21_ AGT  --- 1 132 cbr 230 [5 15 10 0] ------- [13:0 21:0 27 21] [132] 4 0
s 52.934923168 _13_ AGT  --- 1 216 cbr 210 [0 0 0 0] ------- [13:0 21:0 32 0] [216] 0 0
s 52.951723168 _13_ AGT  --- 1 217 cbr 210 [0 0 0 0] ------- [13:0 21:0 32 0] [217] 0 0
s 52.968523168 _13_ AGT  --- 1 218 cbr 210 [0 0 0 0] ------- [13:0 21:0 32 0] [218] 0 0
r 52.969153667 _21_ AGT  --- 1 134 cbr 230 [5 15 10 0] ------- [13:0 21:0 27 21] [134] 4 0
s 52.985323168 _13_ AGT  --- 1 219 cbr 210 [0 0 0 0] ------- [13:0 21:0 32 0] [219] 0 0
s 53.002123168 _13_ AGT  --- 1 220 cbr 210 [0 0 0 0] ------- [13:0 21:0 32 0] [220] 0 0
r 53.017153667 _21_ AGT  --- 1 136 cbr 230 [5 15 10 0] ------- [13:0 21:0 27 21] [136] 4 0
s 53.018923168 _13_ AGT  --- 1 221 cbr 210 [0 0 0 0] ------- [13:0 21:0 32 0] [221] 0 0
s 53.035723168 _13_ AGT  --- 1 222 cbr 210 [0 0 0 0] ------- [13:0 21:0 32 0] [222] 0 0
s 53.052523168 _13_ AGT  --- 1 223 cbr 210 [0 0 0 0] ------- [13:0 21:0 32 0] [223] 0 0
r 53.065153667 _21_ AGT  --- 1 138 cbr 230 [5 15 10 0] ------- [13:0 21:0 27 21] [138] 4 0
s 53.069323168 _13_ AGT  --- 1 224 cbr 210 [0 0 0 0] ------- [13:0 21:0 32 0] [224] 0 0
s 53.086123168 _13_ AGT  --- 1 225 cbr 210 [0 0 0 0] ------- [13:0 21:0 32 0] [225] 0 0
s 53.102923168 _13_ AGT  --- 1 226 cbr 210 [0 0 0 0] ------- [13:0 21:0 32 0] [226] 0 0
r 53.113153667 _21_ AGT  --- 1 140 cbr 230 [5 15 10 0] ------- [13:0 21:0 27 21] [140] 4 0
s 53.119723168 _13_ AGT  --- 1 227 cbr 210 [0 0 0 0] ------- [13:0 21:0 32 0] [227] 0 0
s 53.136523168 _13_ AGT  --- 1 228 cbr 210 [0 0 0 0] ------- [13:0 21:0 32 0] [228] 0 0
s 53.153323168 _13_ AGT  --- 1 229 cbr 210 [0 0 0 0] ------- [13:0 21:0 32 0] [229] 0 0
r 53.161153667 _21_ AGT  --- 1 142 cbr 230 [5 15 10 0] ------- [13:0 21:0 27 21] [142] 4 0
s 53.170123168 _13_ AGT  --- 1 230 cbr 210 [0 0 0 0] ------- [13:0 21:0 32 0] [230] 0 0
s 53.186923168 _13_ AGT  --- 1 231 cbr 210 [0 0 0 0] ------- [13:0 21:0 32 0] [231] 0 0
s 53.203723168 _13_ AGT  --- 1 232 cbr 210 [0 0 0 0] ------- [13:0 21:0 32 0] [232] 0 0
r 53.209153667 _21_ AGT  --- 1 144 cbr 230 [5 15 10 0] ------- [13:0 21:0 27 21] [144] 4 0
s 53.220523168 _13_ AGT  --- 1 233 cbr 210 [0 0 0 0] ------- [13:0 21:0 32 0] [233] 0 0
s 53.237323168 _13_ AGT  --- 1 234 cbr 210 [0 0 0 0] ------- [13:0 21:0 32 0] [234] 0 0
s 53.254123168 _13_ AGT  --- 1 235 cbr 210 [0 0 0 0] ------- [13:0 21:0 32 0] [235] 0 0
r 53.257153667 _21_ AGT  --- 1 146 cbr 230 [5 15 10 0] ------- [13:0 21:0 27 21] [146] 4 0
s 53.270923168 _13_ AGT  --- 1 236 cbr 210 [0 0 0 0] ------- [13:0 21:0 32 0] [236] 0 0
s 53.287723168 _13_ AGT  --- 1 237 cbr 210 [0 0 0 0] ------- [13:0 21:0 32 0] [237] 0 0
s 53.304523168 _13_ AGT  --- 1 238 cbr 210 [0 0 0 0] ------- [13:0 21:0 32 0] [238] 0 0
r 53.305153667 _21_ AGT  --- 1 148 cbr 230 [5 15 10 0] ------- [13:0 21:0 27 21] [148] 4 0
s 53.321323168 _13_ AGT  --- 1 239 cbr 210 [0 0 0 0] ------- [13:0 21:0 32 0] [239] 0 0
s 53.338123168 _13_ AGT  --- 1 240 cbr 210 [0 0 0 0] ------- [13:0 21:0 32 0] [240] 0 0
r 53.353153667 _21_ AGT  --- 1 150 cbr 230 [5 15 10 0] ------- [13:0 21:0 27 21] [150] 4 0
s 53.354923168 _13_ AGT  --- 1 241 cbr 210 [0 0 0 0] ------- [13:0 21:0 32 0] [241] 0 0
s 53.371723168 _13_ AGT  --- 1 242 cbr 210 [0 0 0 0] ------- [13:0 21:0 32 0] [242] 0 0
s 53.388523168 _13_ AGT  --- 1 243 cbr 210 [0 0 0 0] ------- [13:0 21:0 32 0] [243] 0 0
r 53.401153667 _21_ AGT  --- 1 152 cbr 230 [5 15 10 0] ------- [13:0 21:0 27 21] [152] 4 0
s 53.405323168 _13_ AGT  --- 1 244 cbr 210 [0 0 0 0] ------- [13:0 21:0 32 0] [244] 0 0
s 53.422123168 _13_ AGT  --- 1 245 cbr 210 [0 0 0 0] ------- [13:0 21:0 32 0] [245] 0 0
s 53.438923168 _13_ AGT  --- 1 246 cbr 210 [0 0 0 0] ------- [13:0 21:0 32 0] [246] 0 0
r 53.449153667 _21_ AGT  --- 1 154 cbr 230 [5 15 10 0] ------- [13:0 21:0 27 21] [154] 4 0
s 53.455723168 _13_ AGT  --- 1 247 cbr 210 [0 0 0 0] ------- [13:0 21:0 32 0] [247] 0 0
s 53.472523168 _13_ AGT  --- 1 248 cbr 210 [0 0 0 0] ------- [13:0 21:0 32 0] [248] 0 0
s 53.489323168 _13_ AGT  --- 1 249 cbr 210 [0 0 0 0] ------- [13:0 21:0 32 0] [249] 0 0
r 53.497153667 _21_ AGT  --- 1 156 cbr 230 [5 15 10 0] ------- [13:0 21:0 27 21] [156] 4 0
s 53.506123168 _13_ AGT  --- 1 250 cbr 210 [0 0 0 0] ------- [13:0 21:0 32 0] [250] 0 0
s 53.522923168 _13_ AGT  --- 1 251 cbr 210 [0 0 0 0] ------- [13:0 21:0 32 0] [251] 0 0
s 53.539723168 _13_ AGT  --- 1 252 cbr 210 [0 0 0 0] ------- [13:0 21:0 32 0] [252] 0 0
r 53.545153667 _21_ AGT  --- 1 158 cbr 230 [5 15 10 0] ------- [13:0 21:0 27 21] [158] 4 0
s 53.556523168 _13_ AGT  --- 1 253 cbr 210 [0 0 0 0] ------- [13:0 21:0 32 0] [253] 0 0
s 53.573323168 _13_ AGT  --- 1 254 cbr 210 [0 0 0 0] ------- [13:0 21:0 32 0] [254] 0 0
s 53.590123168 _13_ AGT  --- 1 255 cbr 210 [0 0 0 0] ------- [13:0 21:0 32 0] [255] 0 0
r 53.593153667 _21_ AGT  --- 1 160 cbr 230 [5 15 10 0] ------- [13:0 21:0 27 21] [160] 4 0
s 53.606923168 _13_ AGT  --- 1 256 cbr 210 [0 0 0 0] ------- [13:0 21:0 32 0] [256] 0 0
s 53.623723168 _13_ AGT  --- 1 257 cbr 210 [0 0 0 0] ------- [13:0 21:0 32 0] [257] 0 0
s 53.640523168 _13_ AGT  --- 1 258 cbr 210 [0 0 0 0] ------- [13:0 21:0 32 0] [258] 0 0
s 53.657323168 _13_ AGT  --- 1 259 cbr 210 [0 0 0 0] ------- [13:0 21:0 32 0] [259] 0 0