n -t * -s 0  -x 50 -y 50 -Z 0 -z 10  -v circle -c black
n -t * -s 1  -x 50 -y 250 -Z 0 -z 10  -v circle -c black
n -t * -s 2  -x 50 -y 450 -Z 0 -z 10  -v circle -c black
n -t * -s 3  -x 50 -y 650 -Z 0 -z 10  -v circle -c black
n -t * -s 4  -x 50 -y 850 -Z 0 -z 10  -v circle -c black
n -t * -s 5  -x 250 -y 50 -Z 0 -z 10  -v circle -c black
n -t * -s 6  -x 250 -y 250 -Z 0 -z 10  -v circle -c black
n -t * -s 7  -x 250 -y 450 -Z 0 -z 10  -v circle -c black
n -t * -s 8  -x 250 -y 650 -Z 0 -z 10  -v circle -c black
n -t * -s 9  -x 250 -y 850 -Z 0 -z 10  -v circle -c black
n -t * -s 10  -x 450 -y 50 -Z 0 -z 10  -v circle -c black
n -t * -s 11  -x 450 -y 250 -Z 0 -z 10  -v circle -c black
n -t * -s 12  -x 450 -y 450 -Z 0 -z 10  -v circle -c black
n -t * -s 13  -x 450 -y 650 -Z 0 -z 10  -v circle -c black
n -t * -s 14  -x 450 -y 850 -Z 0 -z 10  -v circle -c black
n -t * -s 15  -x 650 -y 50 -Z 0 -z 10  -v circle -c black
n -t * -s 16  -x 650 -y 250 -Z 0 -z 10  -v circle -c black
n -t * -s 17  -x 650 -y 450 -Z 0 -z 10  -v circle -c black
n -t * -s 18  -x 650 -y 650 -Z 0 -z 10  -v circle -c black
n -t * -s 19  -x 650 -y 850 -Z 0 -z 10  -v circle -c black
n -t * -s 20  -x 850 -y 50 -Z 0 -z 10  -v circle -c black
n -t * -s 21  -x 850 -y 250 -Z 0 -z 10  -v circle -c black
n -t * -s 22  -x 850 -y 450 -Z 0 -z 10  -v circle -c black
n -t * -s 23  -x 850 -y 650 -Z 0 -z 10  -v circle -c black
n -t * -s 24  -x 850 -y 850 -Z 0 -z 10  -v circle -c black
V -t * -v 1.0a5 -a 0
W -t * -x 1000 -y 1000
A -t * -n 1 -p 0 -o 0x7fffffff -c 30 -a 1
A -t * -h 1 -m 1073741823 -s 0
+ -t 49.306123168 -s 13 -d -1 -p cbr -e 210 -c 2 -a 0 -i 0 -k AGT 
- -t 49.306123168 -s 13 -d -1 -p cbr -e 210 -c 2 -a 0 -i 0 -k AGT
h -t 49.306123168 -s 13 -d -1 -p cbr -e 210 -c 2 -a 0 -i 0 -k AGT
+ -t 49.322923168 -s 13 -d -1 -p cbr -e 210 -c 2 -a 0 -i 1 -k AGT 
- -t 49.322923168 -s 13 -d -1 -p cbr -e 210 -c 2 -a 0 -i 1 -k AGT
h -t 49.322923168 -s 13 -d -1 -p cbr -e 210 -c 2 -a 0 -i 1 -k AGT
+ -t 49.339723168 -s 13 -d -1 -p cbr -e 210 -c 2 -a 0 -i 2 -k AGT 
- -t 49.339723168 -s 13 -d -1 -p cbr -e 210 -c 2 -a 0 -i 2 -k AGT
h -t 49.339723168 -s 13 -d -1 -p cbr -e 210 -c 2 -a 0 -i 2 -k AGT
+ -t 49.356523168 -s 13 -d -1 -p cbr -e 210 -c 2 -a 0 -i 3 -k AGT 
- -t 49.356523168 -s 13 -d -1 -p cbr -e 210 -c 2 -a 0 -i 3 -k AGT
h -t 49.356523168 -s 13 -d -1 -p cbr -e 210 -c 2 -a 0 -i 3 -k AGT
+ -t 49.373323168 -s 13 -d -1 -p cbr -e 210 -c 2 -a 0 -i 4 -k AGT 
- -t 49.373323168 -s 13 -d -1 -p cbr -e 210 -c 2 -a 0 -i 4 -k AGT
h -t 49.373323168 -s 13 -d -1 -p cbr -e 210 -c 2 -a 0 -i 4 -k AGT
+ -t 49.390123168 -s 13 -d -1 -p cbr -e 210 -c 2 -a 0 -i 5 -k AGT 
- -t 49.390123168 -s 13 -d -1 -p cbr -e 210 -c 2 -a 0 -i 5 -k AGT
h -t 49.390123168 -s 13 -d -1 -p cbr -e 210 -c 2 -a 0 -i 5 -k AGT
+ -t 49.406923168 -s 13 -d -1 -p cbr -e 210 -c 2 -a 0 -i 6 -k AGT 
- -t 49.406923168 -s 13 -d -1 -p cbr -e 210 -c 2 -a 0 -i 6 -k AGT
h -t 49.406923168 -s 13 -d -1 -p cbr -e 210 -c 2 -a 0 -i 6 -k AGT
+ -t 49.423723168 -s 13 -d -1 -p cbr -e 210 -c 2 -a 0 -i 7 -k AGT 
- -t 49.423723168 -s 13 -d -1 -p cbr -e 210 -c 2 -a 0 -i 7 -k AGT
h -t 49.423723168 -s 13 -d -1 -p cbr -e 210 -c 2 -a 0 -i 7 -k AGT
+ -t 49.440523168 -s 13 -d -1 -p cbr -e 210 -c 2 -a 0 -i 8 -k AGT 
- -t 49.440523168 -s 13 -d -1 -p cbr -e 210 -c 2 -a 0 -i 8 -k AGT
h -t 49.440523168 -s 13 -d -1 -p cbr -e 210 -c 2 -a 0 -i 8 -k AGT
+ -t 49.457323168 -s 13 -d -1 -p cbr -e 210 -c 2 -a 0 -i 9 -k AGT 
- -t 49.457323168 -s 13 -d -1 -p cbr -e 210 -c 2 -a 0 -i 9 -k AGT
h -t 49.457323168 -s 13 -d -1 -p cbr -e 210 -c 2 -a 0 -i 9 -k AGT
+ -t 49.474123168 -s 13 -d -1 -p cbr -e 210 -c 2 -a 0 -i 10 -k AGT 
- -t 49.474123168 -s 13 -d -1 -p cbr -e 210 -c 2 -a 0 -i 10 -k AGT
h -t 49.474123168 -s 13 -d -1 -p cbr -e 210 -c 2 -a 0 -i 10 -k AGT
+ -t 49.490923168 -s 13 -d -1 -p cbr -e 210 -c 2 -a 0 -i 11 -k AGT 
- -t 49.490923168 -s 13 -d -1 -p cbr -e 210 -c 2 -a 0 -i 11 -k AGT
h -t 49.490923168 -s 13 -d -1 -p cbr -e 210 -c 2 -a 0 -i 11 -k AGT
+ -t 49.507723168 -s 13 -d -1 -p cbr -e 210 -c 2 -a 0 -i 12 -k AGT 
- -t 49.507723168 -s 13 -d -1 -p cbr -e 210 -c 2 -a 0 -i 12 -k AGT
h -t 49.507723168 -s 13 -d -1 -p cbr -e 210 -c 2 -a 0 -i 12 -k AGT
+ -t 49.524523168 -s 13 -d -1 -p cbr -e 210 -c 2 -a 0 -i 13 -k AGT 
- -t 49.524523168 -s 13 -d -1 -p cbr -e 210 -c 2 -a 0 -i 13 -k AGT
h -t 49.524523168 -s 13 -d -1 -p cbr -e 210 -c 2 -a 0 -i 13 -k AGT
+ -t 49.541323168 -s 13 -d -1 -p cbr -e 210 -c 2 -a 0 -i 14 -k AGT 
- -t 49.541323168 -s 13 -d -1 -p cbr -e 210 -c 2 -a 0 -i 14 -k AGT
h -t 49.541323168 -s 13 -d -1 -p cbr -e 210 -c 2 -a 0 -i 14 -k AGT
+ -t 49.558123168 -s 13 -d -1 -p cbr -e 210 -c 2 -a 0 -i 15 -k AGT 
- -t 49.558123168 -s 13 -d -1 -p cbr -e 210 -c 2 -a 0 -i 15 -k AGT
h -t 49.558123168 -s 13 -d -1 -p cbr -e 210 -c 2 -a 0 -i 15 -k AGT
+ -t 49.574923168 -s 13 -d -1 -p cbr -e 210 -c 2 -a 0 -i 16 -k AGT 
- -t 49.574923168 -s 13 -d -1 -p cbr -e 210 -c 2 -a 0 -i 16 -k AGT
h -t 49.574923168 -s 13 -d -1 -p cbr -e 210 -c 2 -a 0 -i 16 -k AGT
+ -t 49.591723168 -s 13 -d -1 -p cbr -e 210 -c 2 -a 0 -i 17 -k AGT 
- -t 49.591723168 -s 13 -d -1 -p cbr -e 210 -c 2 -a 0 -i 17 -k AGT
h -t 49.591723168 -s 13 -d -1 -p cbr -e 210 -c 2 -a 0 -i 17 -k AGT
+ -t 49.608523168 -s 13 -d -1 -p cbr -e 210 -c 2 -a 0 -i 18 -k AGT 
- -t 49.608523168 -s 13 -d -1 -p cbr -e 210 -c 2 -a 0 -i 18 -k AGT
h -t 49.608523168 -s 13 -d -1 -p cbr -e 210 -c 2 -a 0 -i 18 -k AGT
+ -t 49.625323168 -s 13 -d -1 -p cbr -e 210 -c 2 -a 0 -i 19 -k AGT 
- -t 49.625323168 -s 13 -d -1 -p cbr -e 210 -c 2 -a 0 -i 19 -k AGT
h -t 49.625323168 -s 13 -d -1 -p cbr -e 210 -c 2 -a 0 -i 19 -k AGT
+ -t 49.642123168 -s 13 -d -1 -p cbr -e 210 -c 2 -a 0 -i 20 -k AGT 
- -t 49.642123168 -s 13 -d -1 -p cbr -e 210 -c 2 -a 0 -i 20 -k AGT
h -t 49.642123168 -s 13 -d -1 -p cbr -e 210 -c 2 -a 0 -i 20 -k AGT
+ -t 49.658923168 -s 13 -d -1 -p cbr -e 210 -c 2 -a 0 -i 21 -k AGT 
- -t 49.658923168 -s 13 -d -1 -p cbr -e 210 -c 2 -a 0 -i 21 -k AGT
h -t 49.658923168 -s 13 -d -1 -p cbr -e 210 -c 2 -a 0 -i 21 -k AGT
+ -t 49.675723168 -s 13 -d -1 -p cbr -e 210 -c 2 -a 0 -i 22 -k AGT 
- -t 49.675723168 -s 13 -d -1 -p cbr -e 210 -c 2 -a 0 -i 22 -k AGT
h -t 49.675723168 -s 13 -d -1 -p cbr -e 210 -c 2 -a 0 -i 22 -k AGT
+ -t 49.692523168 -s 13 -d -1 -p cbr -e 210 -c 2 -a 0 -i 23 -k AGT 
- -t 49.692523168 -s 13 -d -1 -p cbr -e 210 -c 2 -a 0 -i 23 -k AGT
h -t 49.692523168 -s 13 -d -1 -p cbr -e 210 -c 2 -a 0 -i 23 -k AGT
+ -t 49.709323168 -s 13 -d -1 -p cbr -e 210 -c 2 -a 0 -i 24 -k AGT 
- -t 49.709323168 -s 13 -d -1 -p cbr -e 210 -c 2 -a 0 -i 24 -k AGT
h -t 49.709323168 -s 13 -d -1 -p cbr -e 210 -c 2 -a 0 -i 24 -k AGT
+ -t 49.726123168 -s 13 -d -1 -p cbr -e 210 -c 2 -a 0 -i 25 -k AGT 
- -t 49.726123168 -s 13 -d -1 -p cbr -e 210 -c 2 -a 0 -i 25 -k AGT
h -t 49.726123168 -s 13 -d -1 -p cbr -e 210 -c 2 -a 0 -i 25 -k AGT
+ -t 49.742923168 -s 13 -d -1 -p cbr -e 210 -c 2 -a 0 -i 26 -k AGT 
- -t 49.742923168 -s 13 -d -1 -p cbr -e 210 -c 2 -a 0 -i 26 -k AGT
h -t 49.742923168 -s 13 -d -1 -p cbr -e 210 -c 2 -a 0 -i 26 -k AGT
r -t 49.753153667 -s 21 -d 21 -p cbr -e 230 -c 2 -a 0 -i 0 -k AGT
+ -t 49.759723168 -s 13 -d -1 -p cbr -e 210 -c 2 -a 0 -i 27 -k AGT 
- -t 49.759723168 -s 13 -d -1 -p cbr -e 210 -c 2 -a 0 -i 27 -k AGT
h -t 49.759723168 -s 13 -d -1 -p cbr -e 210 -c 2 -a 0 -i 27 -k AGT
+ -t 49.776523168 -s 13 -d -1 -p cbr -e 210 -c 2 -a 0 -i 28 -k AGT 
- -t 49.776523168 -s 13 -d -1 -p cbr -e 210 -c 2 -a 0 -i 28 -k AGT
h -t 49.776523168 -s 13 -d -1 -p cbr -e 210 -c 2 -a 0 -i 28 -k AGT
+ -t 49.793323168 -s 13 -d -1 -p cbr -e 210 -c 2 -a 0 -i 29 -k AGT 
- -t 49.793323168 -s 13 -d -1 -p cbr -e 210 -c 2 -a 0 -i 29 -k AGT
h -t 49.793323168 -s 13 -d -1 -p cbr -e 210 -c 2 -a 0 -i 29 -k AGT
r -t 49.801153667 -s 21 -d 21 -p cbr -e 230 -c 2 -a 0 -i 1 -k AGT
+ -t 49.810123168 -s 13 -d -1 -p cbr -e 210 -c 2 -a 0 -i 30 -k AGT 
- -t 49.810123168 -s 13 -d -1 -p cbr -e 210 -c 2 -a 0 -i 30 -k AGT
h -t 49.810123168 -s 13 -d -1 -p cbr -e 210 -c 2 -a 0 -i 30 -k AGT
+ -t 49.826923168 -s 13 -d -1 -p cbr -e 210 -c 2 -a 0 -i 31 -k AGT 
- -t 49.826923168 -s 13 -d -1 -p cbr -e 210 -c 2 -a 0 -i 31 -k AGT
h -t 49.826923168 -s 13 -d -1 -p cbr -e 210 -c 2 -a 0 -i 31 -k AGT
+ -t 49.843723168 -s 13 -d -1 -p cbr -e 210 -c 2 -a 0 -i 32 -k AGT 
- -t 49.843723168 -s 13 -d -1 -p cbr -e 210 -c 2 -a 0 -i 32 -k AGT
h -t 49.843723168 -s 13 -d -1 -p cbr -e 210 -c 2 -a 0 -i 32 -k AGT
r -t 49.849153667 -s 21 -d 21 -p cbr -e 230 -c 2 -a 0 -i 26 -k AGT
+ -t 49.860523168 -s 13 -d -1 -p cbr -e 210 -c 2 -a 0 -i 33 -k AGT 
- -t 49.860523168 -s 13 -d -1 -p cbr -e 210 -c 2 -a 0 -i 33 -k AGT
h -t 49.860523168 -s 13 -d -1 -p cbr -e 210 -c 2 -a 0 -i 33 -k AGT
+ -t 49.877323168 -s 13 -d -1 -p cbr -e 210 -c 2 -a 0 -i 34 -k AGT 
- -t 49.877323168 -s 13 -d -1 -p cbr -e 210 -c 2 -a 0 -i 34 -k AGT
h -t 49.877323168 -s 13 -d -1 -p cbr -e 210 -c 2 -a 0 -i 34 -k AGT
+ -t 49.894123168 -s 13 -d -1 -p cbr -e 210 -c 2 -a 0 -i 35 -k AGT 
- -t 49.894123168 -s 13 -d -1 -p cbr -e 210 -c 2 -a 0 -i 35 -k AGT
h -t 49.894123168 -s 13 -d -1 -p cbr -e 210 -c 2 -a 0 -i 35 -k AGT
r -t 49.897153667 -s 21 -d 21 -p cbr -e 230 -c 2 -a 0 -i 4 -k AGT
+ -t 49.910923168 -s 13 -d -1 -p cbr -e 210 -c 2 -a 0 -i 36 -k AGT 
- -t 49.910923168 -s 13 -d -1 -p cbr -e 210 -c 2 -a 0 -i 36 -k AGT
h -t 49.910923168 -s 13 -d -1 -p cbr -e 210 -c 2 -a 0 -i 36 -k AGT
+ -t 49.927723168 -s 13 -d -1 -p cbr -e 210 -c 2 -a 0 -i 37 -k AGT 
- -t 49.927723168 -s 13 -d -1 -p cbr -e 210 -c 2 -a 0 -i 37 -k AGT
h -t 49.927723168 -s 13 -d -1 -p cbr -e 210 -c 2 -a 0 -i 37 -k AGT
+ -t 49.944523168 -s 13 -d -1 -p cbr -e 210 -c 2 -a 0 -i 38 -k AGT 
- -t 49.944523168 -s 13 -d -1 -p cbr -e 210 -c 2 -a 0 -i 38 -k AGT
h -t 49.944523168 -s 13 -d -1 -p cbr -e 210 -c 2 -a 0 -i 38 -k AGT
r -t 49.945153667 -s 21 -d 21 -p cbr -e 230 -c 2 -a 0 -i 5 -k AGT
+ -t 49.961323168 -s 13 -d -1 -p cbr -e 210 -c 2 -a 0 -i 39 -k AGT 
- -t 49.961323168 -s 13 -d -1 -p cbr -e 210 -c 2 -a 0 -i 39 -k AGT
h -t 49.961323168 -s 13 -d -1 -p cbr -e 210 -c 2 -a 0 -i 39 -k AGT
+ -t 49.978123168 -s 13 -d -1 -p cbr -e 210 -c 2 -a 0 -i 40 -k AGT 
- -t 49.978123168 -s 13 -d -1 -p cbr -e 210 -c 2 -a 0 -i 40 -k AGT
h -t 49.978123168 -s 13 -d -1 -p cbr -e 210 -c 2 -a 0 -i 40 -k AGT
r -t 49.993153667 -s 21 -d 21 -p cbr -e 230 -c 2 -a 0 -i 28 -k AGT
+ -t 49.994923168 -s 13 -d -1 -p cbr -e 210 -c 2 -a 0 -i 41 -k AGT 
- -t 49.994923168 -s 13 -d -1 -p cbr -e 210 -c 2 -a 0 -i 41 -k AGT
h -t 49.994923168 -s 13 -d -1 -p cbr -e 210 -c 2 -a 0 -i 41 -k AGT
+ -t 50.011723168 -s 13 -d -1 -p cbr -e 210 -c 2 -a 0 -i 42 -k AGT 
- -t 50.011723168 -s 13 -d -1 -p cbr -e 210 -c 2 -a 0 -i 42 -k AGT
h -t 50.011723168 -s 13 -d -1 -p cbr -e 210 -c 2 -a 0 -i 42 -k AGT
+ -t 50.028523168 -s 13 -d -1 -p cbr -e 210 -c 2 -a 0 -i 43 -k AGT 
- -t 50.028523168 -s 13 -d -1 -p cbr -e 210 -c 2 -a 0 -i 43 -k AGT
h -t 50.028523168 -s 13 -d -1 -p cbr -e 210 -c 2 -a 0 -i 43 -k AGT
r -t 50.041153667 -s 21 -d 21 -p cbr -e 230 -c 2 -a 0 -i 29 -k AGT
+ -t 50.045323168 -s 13 -d -1 -p cbr -e 210 -c 2 -a 0 -i 44 -k AGT 
- -t 50.045323168 -s 13 -d -1 -p cbr -e 210 -c 2 -a 0 -i 44 -k AGT
h -t 50.045323168 -s 13 -d -1 -p cbr -e 210 -c 2 -a 0 -i 44 -k AGT
+ -t 50.062123168 -s 13 -d -1 -p cbr -e 210 -c 2 -a 0 -i 45 -k AGT 
- -t 50.062123168 -s 13 -d -1 -p cbr -e 210 -c 2 -a 0 -i 45 -k AGT
h -t 50.062123168 -s 13 -d -1 -p cbr -e 210 -c 2 -a 0 -i 45 -k AGT
+ -t 50.078923168 -s 13 -d -1 -p cbr -e 210 -c 2 -a 0 -i 46 -k AGT 
- -t 50.078923168 -s 13 -d -1 -p cbr -e 210 -c 2 -a 0 -i 46 -k AGT
h -t 50.078923168 -s 13 -d -1 -p cbr -e 210 -c 2 -a 0 -i 46 -k AGT
r -t 50.089153667 -s 21 -d 21 -p cbr -e 230 -c 2 -a 0 -i 9 -k AGT
+ -t 50.095723168 -s 13 -d -1 -p cbr -e 210 -c 2 -a 0 -i 47 -k AGT 
- -t 50.095723168 -s 13 -d -1 -p cbr -e 210 -c 2 -a 0 -i 47 -k AGT
h -t 50.095723168 -s 13 -d -1 -p cbr -e 210 -c 2 -a 0 -i 47 -k AGT
+ -t 50.112523168 -s 13 -d -1 -p cbr -e 210 -c 2 -a 0 -i 48 -k AGT 
- -t 50.112523168 -s 13 -d -1 -p cbr -e 210 -c 2 -a 0 -i 48 -k AGT
h -t 50.112523168 -s 13 -d -1 -p cbr -e 210 -c 2 -a 0 -i 48 -k AGT
+ -t 50.129323168 -s 13 -d -1 -p cbr -e 210 -c 2 -a 0 -i 49 -k AGT 
- -t 50.129323168 -s 13 -d -1 -p cbr -e 210 -c 2 -a 0 -i 49 -k AGT
h -t 50.129323168 -s 13 -d -1 -p cbr -e 210 -c 2 -a 0 -i 49 -k AGT
r -t 50.137153667 -s 21 -d 21 -p cbr -e 230 -c 2 -a 0 -i 10 -k AGT
+ -t 50.146123168 -s 13 -d -1 -p cbr -e 210 -c 2 -a 0 -i 50 -k AGT 
- -t 50.146123168 -s 13 -d -1 -p cbr -e 210 -c 2 -a 0 -i 50 -k AGT
h -t 50.146123168 -s 13 -d -1 -p cbr -e 210 -c 2 -a 0 -i 50 -k AGT
+ -t 50.162923168 -s 13 -d -1 -p cbr -e 210 -c 2 -a 0 -i 51 -k AGT 
- -t 50.162923168 -s 13 -d -1 -p cbr -e 210 -c 2 -a 0 -i 51 -k AGT
h -t 50.162923168 -s 13 -d -1 -p cbr -e 210 -c 2 -a 0 -i 51 -k AGT
+ -t 50.179723168 -s 13 -d -1 -p cbr -e 210 -c 2 -a 0 -i 52 -k AGT 
- -t 50.179723168 -s 13 -d -1 -p cbr -e 210 -c 2 -a 0 -i 52 -k AGT
h -t 50.179723168 -s 13 -d -1 -p cbr -e 210 -c 2 -a 0 -i 52 -k AGT
r -t 50.185153667 -s 21 -d 21 -p cbr -e 230 -c 2 -a 0 -i 31 -k AGT
+ -t 50.196523168 -s 13 -d -1 -p cbr -e 210 -c 2 -a 0 -i 53 -k AGT 
- -t 50.196523168 -s 13 -d -1 -p cbr -e 210 -c 2 -a 0 -i 53 -k AGT
h -t 50.196523168 -s 13 -d -1 -p cbr -e 210 -c 2 -a 0 -i 53 -k AGT
+ -t 50.213323168 -s 13 -d -1 -p cbr -e 210 -c 2 -a 0 -i 54 -k AGT 
- -t 50.213323168 -s 13 -d -1 -p cbr -e 210 -c 2 -a 0 -i 54 -k AGT
h -t 50.213323168 -s 13 -d -1 -p cbr -e 210 -c 2 -a 0 -i 54 -k AGT
+ -t 50.230123168 -s 13 -d -1 -p cbr -e 210 -c 2 -a 0 -i 55 -k AGT 
- -t 50.230123168 -s 13 -d -1 -p cbr -e 210 -c 2 -a 0 -i 55 -k AGT
h -t 50.230123168 -s 13 -d -1 -p cbr -e 210 -c 2 -a 0 -i 55 -k AGT
r -t 50.233153667 -s 21 -d 21 -p cbr -e 230 -c 2 -a 0 -i 32 -k AGT
+ -t 50.246923168 -s 13 -d -1 -p cbr -e 210 -c 2 -a 0 -i 56 -k AGT 
- -t 50.246923168 -s 13 -d -1 -p cbr -e 210 -c 2 -a 0 -i 56 -k AGT
h -t 50.246923168 -s 13 -d -1 -p cbr -e 210 -c 2 -a 0 -i 56 -k AGT
+ -t 50.263723168 -s 13 -d -1 -p cbr -e 210 -c 2 -a 0 -i 57 -k AGT 
- -t 50.263723168 -s 13 -d -1 -p cbr -e 210 -c 2 -a 0 -i 57 -k AGT
h -t 50.263723168 -s 13 -d -1 -p cbr -e 210 -c 2 -a 0 -i 57 -k AGT
+ -t 50.280523168 -s 13 -d -1 -p cbr -e 210 -c 2 -a 0 -i 58 -k AGT 
- -t 50.280523168 -s 13 -d -1 -p cbr -e 210 -c 2 -a 0 -i 58 -k AGT
h -t 50.280523168 -s 13 -d -1 -p cbr -e 210 -c 2 -a 0 -i 58 -k AGT
r -t 50.281153667 -s 21 -d 21 -p cbr -e 230 -c 2 -a 0 -i 14 -k AGT
+ -t 50.297323168 -s 13 -d -1 -p cbr -e 210 -c 2 -a 0 -i 59 -k AGT 
- -t 50.297323168 -s 13 -d -1 -p cbr -e 210 -c 2 -a 0 -i 59 -k AGT
h -t 50.297323168 -s 13 -d -1 -p cbr -e 210 -c 2 -a 0 -i 59 -k AGT
+ -t 50.314123168 -s 13 -d -1 -p cbr -e 210 -c 2 -a 0 -i 60 -k AGT 
- -t 50.314123168 -s 13 -d -1 -p cbr -e 210 -c 2 -a 0 -i 60 -k AGT
h -t 50.314123168 -s 13 -d -1 -p cbr -e 210 -c 2 -a 0 -i 60 -k AGT
r -t 50.329153667 -s 21 -d 21 -p cbr -e 230 -c 2 -a 0 -i 15 -k AGT
+ -t 50.330923168 -s 13 -d -1 -p cbr -e 210 -c 2 -a 0 -i 61 -k AGT 
- -t 50.330923168 -s 13 -d -1 -p cbr -e 210 -c 2 -a 0 -i 61 -k AGT
h -t 50.330923168 -s 13 -d -1 -p cbr -e 210 -c 2 -a 0 -i 61 -k AGT
+ -t 50.347723168 -s 13 -d -1 -p cbr -e 210 -c 2 -a 0 -i 62 -k AGT 
- -t 50.347723168 -s 13 -d -1 -p cbr -e 210 -c 2 -a 0 -i 62 -k AGT
h -t 50.347723168 -s 13 -d -1 -p cbr -e 210 -c 2 -a 0 -i 62 -k AGT
+ -t 50.364523168 -s 13 -d -1 -p cbr -e 210 -c 2 -a 0 -i 63 -k AGT 
- -t 50.364523168 -s 13 -d -1 -p cbr -e 210 -c 2 -a 0 -i 63 -k AGT
h -t 50.364523168 -s 13 -d -1 -p cbr -e 210 -c 2 -a 0 -i 63 -k AGT
r -t 50.377153667 -s 21 -d 21 -p cbr -e 230 -c 2 -a 0 -i 34 -k AGT
+ -t 50.381323168 -s 13 -d -1 -p cbr -e 210 -c 2 -a 0 -i 64 -k AGT 
- -t 50.381323168 -s 13 -d -1 -p cbr -e 210 -c 2 -a 0 -i 64 -k AGT
h -t 50.381323168 -s 13 -d -1 -p cbr -e 210 -c 2 -a 0 -i 64 -k AGT
+ -t 50.398123168 -s 13 -d -1 -p cbr -e 210 -c 2 -a 0 -i 65 -k AGT 
- -t 50.398123168 -s 13 -d -1 -p cbr -e 210 -c 2 -a 0 -i 65 -k AGT
h -t 50.398123168 -s 13 -d -1 -p cbr -e 210 -c 2 -a 0 -i 65 -k AGT
+ -t 50.414923168 -s 13 -d -1 -p cbr -e 210 -c 2 -a 0 -i 66 -k AGT 
- -t 50.414923168 -s 13 -d -1 -p cbr -e 210 -c 2 -a 0 -i 66 -k AGT
h -t 50.414923168 -s 13 -d -1 -p cbr -e 210 -c 2 -a 0 -i 66 -k AGT
r -t 50.425153667 -s 21 -d 21 -p cbr -e 230 -c 2 -a 0 -i 35 -k AGT
+ -t 50.431723168 -s 13 -d -1 -p cbr -e 210 -c 2 -a 0 -i 67 -k AGT 
- -t 50.431723168 -s 13 -d -1 -p cbr -e 210 -c 2 -a 0 -i 67 -k AGT
h -t 50.431723168 -s 13 -d -1 -p cbr -e 210 -c 2 -a 0 -i 67 -k AGT
+ -t 50.448523168 -s 13 -d -1 -p cbr -e 210 -c 2 -a 0 -i 68 -k AGT 
- -t 50.448523168 -s 13 -d -1 -p cbr -e 210 -c 2 -a 0 -i 68 -k AGT
h -t 50.448523168 -s 13 -d -1 -p cbr -e 210 -c 2 -a 0 -i 68 -k AGT
+ -t 50.465323168 -s 13 -d -1 -p cbr -e 210 -c 2 -a 0 -i 69 -k AGT 
- -t 50.465323168 -s 13 -d -1 -p cbr -e 210 -c 2 -a 0 -i 69 -k AGT
h -t 50.465323168 -s 13 -d -1 -p cbr -e 210 -c 2 -a 0 -i 69 -k AGT
r -t 50.473153667 -s 21 -d 21 -p cbr -e 230 -c 2 -a 0 -i 19 -k AGT
+ -t 50.482123168 -s 13 -d -1 -p cbr -e 210 -c 2 -a 0 -i 70 -k AGT 
- -t 50.482123168 -s 13 -d -1 -p cbr -e 210 -c 2 -a 0 -i 70 -k AGT
h -t 50.482123168 -s 13 -d -1 -p cbr -e 210 -c 2 -a 0 -i 70 -k AGT
+ -t 50.498923168 -s 13 -d -1 -p cbr -e 210 -c 2 -a 0 -i 71 -k AGT 
- -t 50.498923168 -s 13 -d -1 -p cbr -e 210 -c 2 -a 0 -i 71 -k AGT
h -t 50.498923168 -s 13 -d -1 -p cbr -e 210 -c 2 -a 0 -i 71 -k AGT
+ -t 50.515723168 -s 13 -d -1 -p cbr -e 210 -c 2 -a 0 -i 72 -k AGT 
- -t 50.515723168 -s 13 -d -1 -p cbr -e 210 -c 2 -a 0 -i 72 -k AGT
h -t 50.515723168 -s 13 -d -1 -p cbr -e 210 -c 2 -a 0 -i 72 -k AGT
r -t 50.521153667 -s 21 -d 21 -p cbr -e 230 -c 2 -a 0 -i 20 -k AGT
+ -t 50.532523168 -s 13 -d -1 -p cbr -e 210 -c 2 -a 0 -i 73 -k AGT 
- -t 50.532523168 -s 13 -d -1 -p cbr -e 210 -c 2 -a 0 -i 73 -k AGT
h -t 50.532523168 -s 13 -d -1 -p cbr -e 210 -c 2 -a 0 -i 73 -k AGT
+ -t 50.549323168 -s 13 -d -1 -p cbr -e 210 -c 2 -a 0 -i 74 -k AGT 
- -t 50.549323168 -s 13 -d -1 -p cbr -e 210 -c 2 -a 0 -i 74 -k AGT
h -t 50.549323168 -s 13 -d -1 -p cbr -e 210 -c 2 -a 0 -i 74 -k AGT
+ -t 50.566123168 -s 13 -d -1 -p cbr -e 210 -c 2 -a 0 -i 75 -k AGT 
- -t 50.566123168 -s 13 -d -1 -p cbr -e 210 -c 2 -a 0 -i 75 -k AGT
h -t 50.566123168 -s 13 -d -1 -p cbr -e 210 -c 2 -a 0 -i 75 -k AGT
r -t 50.569153667 -s 21 -d 21 -p cbr -e 230 -c 2 -a 0 -i 37 -k AGT
+ -t 50.582923168 -s 13 -d -1 -p cbr -e 210 -c 2 -a 0 -i 76 -k AGT 
- -t 50.582923168 -s 13 -d -1 -p cbr -e 210 -c 2 -a 0 -i 76 -k AGT
h -t 50.582923168 -s 13 -d -1 -p cbr -e 210 -c 2 -a 0 -i 76 -k AGT
+ -t 50.599723168 -s 13 -d -1 -p cbr -e 210 -c 2 -a 0 -i 77 -k AGT 
- -t 50.599723168 -s 13 -d -1 -p cbr -e 210 -c 2 -a 0 -i 77 -k AGT
h -t 50.599723168 -s 13 -d -1 -p cbr -e 210 -c 2 -a 0 -i 77 -k AGT
+ -t 50.616523168 -s 13 -d -1 -p cbr -e 210 -c 2 -a 0 -i 78 -k AGT 
- -t 50.616523168 -s 13 -d -1 -p cbr -e 210 -c 2 -a 0 -i 78 -k AGT
h -t 50.616523168 -s 13 -d -1 -p cbr -e 210 -c 2 -a 0 -i 78 -k AGT
r -t 50.617153667 -s 21 -d 21 -p cbr -e 230 -c 2 -a 0 -i 38 -k AGT
+ -t 50.633323168 -s 13 -d -1 -p cbr -e 210 -c 2 -a 0 -i 79 -k AGT 
- -t 50.633323168 -s 13 -d -1 -p cbr -e 210 -c 2 -a 0 -i 79 -k AGT
h -t 50.633323168 -s 13 -d -1 -p cbr -e 210 -c 2 -a 0 -i 79 -k AGT
+ -t 50.650123168 -s 13 -d -1 -p cbr -e 210 -c 2 -a 0 -i 80 -k AGT 
- -t 50.650123168 -s 13 -d -1 -p cbr -e 210 -c 2 -a 0 -i 80 -k AGT
h -t 50.650123168 -s 13 -d -1 -p cbr -e 210 -c 2 -a 0 -i 80 -k AGT
r -t 50.665153667 -s 21 -d 21 -p cbr -e 230 -c 2 -a 0 -i 24 -k AGT
+ -t 50.666923168 -s 13 -d -1 -p cbr -e 210 -c 2 -a 0 -i 81 -k AGT 
- -t 50.666923168 -s 13 -d -1 -p cbr -e 210 -c 2 -a 0 -i 81 -k AGT
h -t 50.666923168 -s 13 -d -1 -p cbr -e 210 -c 2 -a 0 -i 81 -k AGT
+ -t 50.683723168 -s 13 -d -1 -p cbr -e 210 -c 2 -a 0 -i 82 -k AGT 
- -t 50.683723168 -s 13 -d -1 -p cbr -e 210 -c 2 -a 0 -i 82 -k AGT
h -t 50.683723168 -s 13 -d -1 -p cbr -e 210 -c 2 -a 0 -i 82 -k AGT
+ -t 50.700523168 -s 13 -d -1 -p cbr -e 210 -c 2 -a 0 -i 83 -k AGT 
- -t 50.700523168 -s 13 -d -1 -p cbr -e 210 -c 2 -a 0 -i 83 -k AGT
h -t 50.700523168 -s 13 -d -1 -p cbr -e 210 -c 2 -a 0 -i 83 -k AGT
r -t 50.713153667 -s 21 -d 21 -p cbr -e 230 -c 2 -a 0 -i 40 -k AGT
+ -t 50.717323168 -s 13 -d -1 -p cbr -e 210 -c 2 -a 0 -i 84 -k AGT 
- -t 50.717323168 -s 13 -d -1 -p cbr -e 210 -c 2 -a 0 -i 84 -k AGT
h -t 50.717323168 -s 13 -d -1 -p cbr -e 210 -c 2 -a 0 -i 84 -k AGT
+ -t 50.734123168 -s 13 -d -1 -p cbr -e 210 -c 2 -a 0 -i 85 -k AGT 
- -t 50.734123168 -s 13 -d -1 -p cbr -e 210 -c 2 -a 0 -i 85 -k AGT
h -t 50.734123168 -s 13 -d -1 -p cbr -e 210 -c 2 -a 0 -i 85 -k AGT
+ -t 50.750923168 -s 13 -d -1 -p cbr -e 210 -c 2 -a 0 -i 86 -k AGT 
- -t 50.750923168 -s 13 -d -1 -p cbr -e 210 -c 2 -a 0 -i 86 -k AGT
h -t 50.750923168 -s 13 -d -1 -p cbr -e 210 -c 2 -a 0 -i 86 -k AGT
r -t 50.761153667 -s 21 -d 21 -p cbr -e 230 -c 2 -a 0 -i 42 -k AGT
+ -t 50.767723168 -s 13 -d -1 -p cbr -e 210 -c 2 -a 0 -i 87 -k AGT 
- -t 50.767723168 -s 13 -d -1 -p cbr -e 210 -c 2 -a 0 -i 87 -k AGT
h -t 50.767723168 -s 13 -d -1 -p cbr -e 210 -c 2 -a 0 -i 87 -k AGT
+ -t 50.784523168 -s 13 -d -1 -p cbr -e 210 -c 2 -a 0 -i 88 -k AGT 
- -t 50.784523168 -s 13 -d -1 -p cbr -e 210 -c 2 -a 0 -i 88 -k AGT
h -t 50.784523168 -s 13 -d -1 -p cbr -e 210 -c 2 -a 0 -i 88 -k AGT
+ -t 50.801323168 -s 13 -d -1 -p cbr -e 210 -c 2 -a 0 -i 89 -k AGT 
- -t 50.801323168 -s 13 -d -1 -p cbr -e 210 -c 2 -a 0 -i 89 -k AGT
h -t 50.801323168 -s 13 -d -1 -p cbr -e 210 -c 2 -a 0 -i 89 -k AGT
r -t 50.809153667 -s 21 -d 21 -p cbr -e 230 -c 2 -a 0 -i 44 -k AGT
+ -t 50.818123168 -s 13 -d -1 -p cbr -e 210 -c 2 -a 0 -i 90 -k AGT 
- -t 50.818123168 -s 13 -d -1 -p cbr -e 210 -c 2 -a 0 -i 90 -k AGT
h -t 50.818123168 -s 13 -d -1 -p cbr -e 210 -c 2 -a 0 -i 90 -k AGT
+ -t 50.834923168 -s 13 -d -1 -p cbr -e 210 -c 2 -a 0 -i 91 -k AGT 
- -t 50.834923168 -s 13 -d -1 -p cbr -e 210 -c 2 -a 0 -i 91 -k AGT
h -t 50.834923168 -s 13 -d -1 -p cbr -e 210 -c 2 -a 0 -i 91 -k AGT
+ -t 50.851723168 -s 13 -d -1 -p cbr -e 210 -c 2 -a 0 -i 92 -k AGT 
- -t 50.851723168 -s 13 -d -1 -p cbr -e 210 -c 2 -a 0 -i 92 -k AGT
h -t 50.851723168 -s 13 -d -1 -p cbr -e 210 -c 2 -a 0 -i 92 -k AGT
r -t 50.857153667 -s 21 -d 21 -p cbr -e 230 -c 2 -a 0 -i 46 -k AGT
+ -t 50.868523168 -s 13 -d -1 -p cbr -e 210 -c 2 -a 0 -i 93 -k AGT 
- -t 50.868523168 -s 13 -d -1 -p cbr -e 210 -c 2 -a 0 -i 93 -k AGT
h -t 50.868523168 -s 13 -d -1 -p cbr -e 210 -c 2 -a 0 -i 93 -k AGT
+ -t 50.885323168 -s 13 -d -1 -p cbr -e 210 -c 2 -a 0 -i 94 -k AGT 
- -t 50.885323168 -s 13 -d -1 -p cbr -e 210 -c 2 -a 0 -i 94 -k AGT
h -t 50.885323168 -s 13 -d -1 -p cbr -e 210 -c 2 -a 0 -i 94 -k AGT
+ -t 50.902123168 -s 13 -d -1 -p cbr -e 210 -c 2 -a 0 -i 95 -k AGT 
- -t 50.902123168 -s 13 -d -1 -p cbr -e 210 -c 2 -a 0 -i 95 -k AGT
h -t 50.902123168 -s 13 -d -1 -p cbr -e 210 -c 2 -a 0 -i 95 -k AGT
r -t 50.905153667 -s 21 -d 21 -p cbr -e 230 -c 2 -a 0 -i 48 -k AGT
+ -t 50.918923168 -s 13 -d -1 -p cbr -e 210 -c 2 -a 0 -i 96 -k AGT 
- -t 50.918923168 -s 13 -d -1 -p cbr -e 210 -c 2 -a 0 -i 96 -k AGT
h -t 50.918923168 -s 13 -d -1 -p cbr -e 210 -c 2 -a 0 -i 96 -k AGT
+ -t 50.935723168 -s 13 -d -1 -p cbr -e 210 -c 2 -a 0 -i 97 -k AGT 
- -t 50.935723168 -s 13 -d -1 -p cbr -e 210 -c 2 -a 0 -i 97 -k AGT
h -t 50.935723168 -s 13 -d -1 -p cbr -e 210 -c 2 -a 0 -i 97 -k AGT
+ -t 50.952523168 -s 13 -d -1 -p cbr -e 210 -c 2 -a 0 -i 98 -k AGT 
- -t 50.952523168 -s 13 -d -1 -p cbr -e 210 -c 2 -a 0 -i 98 -k AGT
h -t 50.952523168 -s 13 -d -1 -p cbr -e 210 -c 2 -a 0 -i 98 -k AGT
r -t 50.953153667 -s 21 -d 21 -p cbr -e 230 -c 2 -a 0 -i 50 -k AGT
+ -t 50.969323168 -s 13 -d -1 -p cbr -e 210 -c 2 -a 0 -i 99 -k AGT 
- -t 50.969323168 -s 13 -d -1 -p cbr -e 210 -c 2 -a 0 -i 99 -k AGT
h -t 50.969323168 -s 13 -d -1 -p cbr -e 210 -c 2 -a 0 -i 99 -k AGT
+ -t 50.986123168 -s 13 -d -1 -p cbr -e 210 -c 2 -a 0 -i 100 -k AGT 
- -t 50.986123168 -s 13 -d -1 -p cbr -e 210 -c 2 -a 0 -i 100 -k AGT
h -t 50.986123168 -s 13 -d -1 -p cbr -e 210 -c 2 -a 0 -i 100 -k AGT
r -t 51.001153667 -s 21 -d 21 -p cbr -e 230 -c 2 -a 0 -i 52 -k AGT
+ -t 51.002923168 -s 13 -d -1 -p cbr -e 210 -c 2 -a 0 -i 101 -k AGT 
- -t 51.002923168 -s 13 -d -1 -p cbr -e 210 -c 2 -a 0 -i 101 -k AGT
h -t 51.002923168 -s 13 -d -1 -p cbr -e 210 -c 2 -a 0 -i 101 -k AGT
+ -t 51.019723168 -s 13 -d -1 -p cbr -e 210 -c 2 -a 0 -i 102 -k AGT 
- -t 51.019723168 -s 13 -d -1 -p cbr -e 210 -c 2 -a 0 -i 102 -k AGT
h -t 51.019723168 -s 13 -d -1 -p cbr -e 210 -c 2 -a 0 -i 102 -k AGT
+ -t 51.036523168 -s 13 -d -1 -p cbr -e 210 -c 2 -a 0 -i 103 -k AGT 
- -t 51.036523168 -s 13 -d -1 -p cbr -e 210 -c 2 -a 0 -i 103 -k AGT
h -t 51.036523168 -s 13 -d -1 -p cbr -e 210 -c 2 -a 0 -i 103 -k AGT
r -t 51.049153667 -s 21 -d 21 -p cbr -e 230 -c 2 -a 0 -i 54 -k AGT
+ -t 51.053323168 -s 13 -d -1 -p cbr -e 210 -c 2 -a 0 -i 104 -k AGT 
- -t 51.053323168 -s 13 -d -1 -p cbr -e 210 -c 2 -a 0 -i 104 -k AGT
h -t 51.053323168 -s 13 -d -1 -p cbr -e 210 -c 2 -a 0 -i 104 -k AGT
+ -t 51.070123168 -s 13 -d -1 -p cbr -e 210 -c 2 -a 0 -i 105 -k AGT 
- -t 51.070123168 -s 13 -d -1 -p cbr -e 210 -c 2 -a 0 -i 105 -k AGT
h -t 51.070123168 -s 13 -d -1 -p cbr -e 210 -c 2 -a 0 -i 105 -k AGT
+ -t 51.086923168 -s 13 -d -1 -p cbr -e 210 -c 2 -a 0 -i 106 -k AGT 
- -t 51.086923168 -s 13 -d -1 -p cbr -e 210 -c 2 -a 0 -i 106 -k AGT
h -t 51.086923168 -s 13 -d -1 -p cbr -e 210 -c 2 -a 0 -i 106 -k AGT
r -t 51.097153667 -s 21 -d 21 -p cbr -e 230 -c 2 -a 0 -i 56 -k AGT
+ -t 51.103723168 -s 13 -d -1 -p cbr -e 210 -c 2 -a 0 -i 107 -k AGT 
- -t 51.103723168 -s 13 -d -1 -p cbr -e 210 -c 2 -a 0 -i 107 -k AGT
h -t 51.103723168 -s 13 -d -1 -p cbr -e 210 -c 2 -a 0 -i 107 -k AGT
+ -t 51.120523168 -s 13 -d -1 -p cbr -e 210 -c 2 -a 0 -i 108 -k AGT 
- -t 51.120523168 -s 13 -d -1 -p cbr -e 210 -c 2 -a 0 -i 108 -k AGT
h -t 51.120523168 -s 13 -d -1 -p cbr -e 210 -c 2 -a 0 -i 108 -k AGT
+ -t 51.137323168 -s 13 -d -1 -p cbr -e 210 -c 2 -a 0 -i 109 -k AGT 
- -t 51.137323168 -s 13 -d -1 -p cbr -e 210 -c 2 -a 0 -i 109 -k AGT
h -t 51.137323168 -s 13 -d -1 -p cbr -e 210 -c 2 -a 0 -i 109 -k AGT
r -t 51.145153667 -s 21 -d 21 -p cbr -e 230 -c 2 -a 0 -i 58 -k AGT
+ -t 51.154123168 -s 13 -d -1 -p cbr -e 210 -c 2 -a 0 -i 110 -k AGT 
- -t 51.154123168 -s 13 -d -1 -p cbr -e 210 -c 2 -a 0 -i 110 -k AGT
h -t 51.154123168 -s 13 -d -1 -p cbr -e 210 -c 2 -a 0 -i 110 -k AGT
+ -t 51.170923168 -s 13 -d -1 -p cbr -e 210 -c 2 -a 0 -i 111 -k AGT 
- -t 51.170923168 -s 13 -d -1 -p cbr -e 210 -c 2 -a 0 -i 111 -k AGT
h -t 51.170923168 -s 13 -d -1 -p cbr -e 210 -c 2 -a 0 -i 111 -k AGT
+ -t 51.187723168 -s 13 -d -1 -p cbr -e 210 -c 2 -a 0 -i 112 -k AGT 
- -t 51.187723168 -s 13 -d -1 -p cbr -e 210 -c 2 -a 0 -i 112 -k AGT
h -t 51.187723168 -s 13 -d -1 -p cbr -e 210 -c 2 -a 0 -i 112 -k AGT
r -t 51.193153667 -s 21 -d 21 -p cbr -e 230 -c 2 -a 0 -i 60 -k AGT
+ -t 51.204523168 -s 13 -d -1 -p cbr -e 210 -c 2 -a 0 -i 113 -k AGT 
- -t 51.204523168 -s 13 -d -1 -p cbr -e 210 -c 2 -a 0 -i 113 -k AGT
h -t 51.204523168 -s 13 -d -1 -p cbr -e 210 -c 2 -a 0 -i 113 -k AGT
+ -t 51.221323168 -s 13 -d -1 -p cbr -e 210 -c 2 -a 0 -i 114 -k AGT 
- -t 51.221323168 -s 13 -d -1 -p cbr -e 210 -c 2 -a 0 -i 114 -k AGT
h -t 51.221323168 -s 13 -d -1 -p cbr -e 210 -c 2 -a 0 -i 114 -k AGT
+ -t 51.238123168 -s 13 -d -1 -p cbr -e 210 -c 2 -a 0 -i 115 -k AGT 
- -t 51.238123168 -s 13 -d -1 -p cbr -e 210 -c 2 -a 0 -i 115 -k AGT
h -t 51.238123168 -s 13 -d -1 -p cbr -e 210 -c 2 -a 0 -i 115 -k AGT
r -t 51.241153667 -s 21 -d 21 -p cbr -e 230 -c 2 -a 0 -i 62 -k AGT
+ -t 51.254923168 -s 13 -d -1 -p cbr -e 210 -c 2 -a 0 -i 116 -k AGT 
- -t 51.254923168 -s 13 -d -1 -p cbr -e 210 -c 2 -a 0 -i 116 -k AGT
h -t 51.254923168 -s 13 -d -1 -p cbr -e 210 -c 2 -a 0 -i 116 -k AGT
+ -t 51.271723168 -s 13 -d -1 -p cbr -e 210 -c 2 -a 0 -i 117 -k AGT 
- -t 51.271723168 -s 13 -d -1 -p cbr -e 210 -c 2 -a 0 -i 117 -k AGT
h -t 51.271723168 -s 13 -d -1 -p cbr -e 210 -c 2 -a 0 -i 117 -k AGT
+ -t 51.288523168 -s 13 -d -1 -p cbr -e 210 -c 2 -a 0 -i 118 -k AGT 
- -t 51.288523168 -s 13 -d -1 -p cbr -e 210 -c 2 -a 0 -i 118 -k AGT
h -t 51.288523168 -s 13 -d -1 -p cbr -e 210 -c 2 -a 0 -i 118 -k AGT
r -t 51.289153667 -s 21 -d 21 -p cbr -e 230 -c 2 -a 0 -i 64 -k AGT
+ -t 51.305323168 -s 13 -d -1 -p cbr -e 210 -c 2 -a 0 -i 119 -k AGT 
- -t 51.305323168 -s 13 -d -1 -p cbr -e 210 -c 2 -a 0 -i 119 -k AGT
h -t 51.305323168 -s 13 -d -1 -p cbr -e 210 -c 2 -a 0 -i 119 -k AGT
+ -t 51.322123168 -s 13 -d -1 -p cbr -e 210 -c 2 -a 0 -i 120 -k AGT 
- -t 51.322123168 -s 13 -d -1 -p cbr -e 210 -c 2 -a 0 -i 120 -k AGT
h -t 51.322123168 -s 13 -d -1 -p cbr -e 210 -c 2 -a 0 -i 120 -k AGT
r -t 51.337153667 -s 21 -d 21 -p cbr -e 230 -c 2 -a 0 -i 66 -k AGT
+ -t 51.338923168 -s 13 -d -1 -p cbr -e 210 -c 2 -a 0 -i 121 -k AGT 
- -t 51.338923168 -s 13 -d -1 -p cbr -e 210 -c 2 -a 0 -i 121 -k AGT
h -t 51.338923168 -s 13 -d -1 -p cbr -e 210 -c 2 -a 0 -i 121 -k AGT
+ -t 51.355723168 -s 13 -d -1 -p cbr -e 210 -c 2 -a 0 -i 122 -k AGT 
- -t 51.355723168 -s 13 -d -1 -p cbr -e 210 -c 2 -a 0 -i 122 -k AGT
h -t 51.355723168 -s 13 -d -1 -p cbr -e 210 -c 2 -a 0 -i 122 -k AGT
+ -t 51.372523168 -s 13 -d -1 -p cbr -e 210 -c 2 -a 0 -i 123 -k AGT 
- -t 51.372523168 -s 13 -d -1 -p cbr -e 210 -c 2 -a 0 -i 123 -k AGT
h -t 51.372523168 -s 13 -d -1 -p cbr -e 210 -c 2 -a 0 -i 123 -k AGT
r -t 51.385153667 -s 21 -d 21 -p cbr -e 230 -c 2 -a 0 -i 68 -k AGT
+ -t 51.389323168 -s 13 -d -1 -p cbr -e 210 -c 2 -a 0 -i 124 -k AGT 
- -t 51.389323168 -s 13 -d -1 -p cbr -e 210 -c 2 -a 0 -i 124 -k AGT
h -t 51.389323168 -s 13 -d -1 -p cbr -e 210 -c 2 -a 0 -i 124 -k AGT
+ -t 51.406123168 -s 13 -d -1 -p cbr -e 210 -c 2 -a 0 -i 125 -k AGT 
- -t 51.406123168 -s 13 -d -1 -p cbr -e 210 -c 2 -a 0 -i 125 -k AGT
h -t 51.406123168 -s 13 -d -1 -p cbr -e 210 -c 2 -a 0 -i 125 -k AGT
+ -t 51.422923168 -s 13 -d -1 -p cbr -e 210 -c 2 -a 0 -i 126 -k AGT 
- -t 51.422923168 -s 13 -d -1 -p cbr -e 210 -c 2 -a 0 -i 126 -k AGT
h -t 51.422923168 -s 13 -d -1 -p cbr -e 210 -c 2 -a 0 -i 126 -k AGT
r -t 51.433153667 -s 21 -d 21 -p cbr -e 230 -c 2 -a 0 -i 70 -k AGT
+ -t 51.439723168 -s 13 -d -1 -p cbr -e 210 -c 2 -a 0 -i 127 -k AGT 
- -t 51.439723168 -s 13 -d -1 -p cbr -e 210 -c 2 -a 0 -i 127 -k AGT
h -t 51.439723168 -s 13 -d -1 -p cbr -e 210 -c 2 -a 0 -i 127 -k AGT
+ -t 51.456523168 -s 13 -d -1 -p cbr -e 210 -c 2 -a 0 -i 128 -k AGT 