n -t * -s 0  -x 50 -y 50 -Z 0 -z 10  -v circle -c black
n -t * -s 1  -x 50 -y 250 -Z 0 -z 10  -v circle -c black
n -t * -s 2  -x 50 -y 450 -Z 0 -z 10  -v circle -c black
n -t * -s 3  -x 50 -y 650 -Z 0 -z 10  -v circle -c black
n -t * -s 4  -x 50 -y 850 -Z 0 -z 10  -v circle -c black
n -t * -s 5  -x 250 -y 50 -Z 0 -z 10  -v circle -c black
n -t * -s 6  -x 250 -y 250 -Z 0 -z 10  -v circle -c black
n -t * -s 7  -x 250 -y 450 -Z 0 -z 10  -v circle -c black
n -t * -s 8  -x 250 -y 650 -Z 0 -z 10  -v circle -c black
n -t * -s 9  -x 250 -y 850 -Z 0 -z 10  -v circle -c black
n -t * -s 10  -x 450 -y 50 -Z 0 -z 10  -v circle -c black
n -t * -s 11  -x 450 -y 250 -Z 0 -z 10  -v circle -c black
n -t * -s 12  -x 450 -y 450 -Z 0 -z 10  -v circle -c black
n -t * -s 13  -x 450 -y 650 -Z 0 -z 10  -v circle -c black
n -t * -s 14  -x 450 -y 850 -Z 0 -z 10  -v circle -c black
n -t * -s 15  -x 650 -y 50 -Z 0 -z 10  -v circle -c black
n -t * -s 16  -x 650 -y 250 -Z 0 -z 10  -v circle -c black
n -t * -s 17  -x 650 -y 450 -Z 0 -z 10  -v circle -c black
n -t * -s 18  -x 650 -y 650 -Z 0 -z 10  -v circle -c black
n -t * -s 19  -x 650 -y 850 -Z 0 -z 10  -v circle -c black
n -t * -s 20  -x 850 -y 50 -Z 0 -z 10  -v circle -c black
n -t * -s 21  -x 850 -y 250 -Z 0 -z 10  -v circle -c black
n -t * -s 22  -x 850 -y 450 -Z 0 -z 10  -v circle -c black
n -t * -s 23  -x 850 -y 650 -Z 0 -z 10  -v circle -c black
n -t * -s 24  -x 850 -y 850 -Z 0 -z 10  -v circle -c black
V -t * -v 1.0a5 -a 0
W -t * -x 1000 -y 1000
A -t * -n 1 -p 0 -o 0x7fffffff -c 30 -a 1
A -t * -h 1 -m 1073741823 -s 0
+ -t 14.419142210 -s 23 -d -1 -p cbr -e 210 -c 2 -a 0 -i 0 -k AGT 
- -t 14.419142210 -s 23 -d -1 -p cbr -e 210 -c 2 -a 0 -i 0 -k AGT
h -t 14.419142210 -s 23 -d -1 -p cbr -e 210 -c 2 -a 0 -i 0 -k AGT
+ -t 14.437808877 -s 23 -d -1 -p cbr -e 210 -c 2 -a 0 -i 1 -k AGT 
- -t 14.437808877 -s 23 -d -1 -p cbr -e 210 -c 2 -a 0 -i 1 -k AGT
h -t 14.437808877 -s 23 -d -1 -p cbr -e 210 -c 2 -a 0 -i 1 -k AGT
+ -t 14.456475543 -s 23 -d -1 -p cbr -e 210 -c 2 -a 0 -i 2 -k AGT 
- -t 14.456475543 -s 23 -d -1 -p cbr -e 210 -c 2 -a 0 -i 2 -k AGT
h -t 14.456475543 -s 23 -d -1 -p cbr -e 210 -c 2 -a 0 -i 2 -k AGT
+ -t 14.475142210 -s 23 -d -1 -p cbr -e 210 -c 2 -a 0 -i 3 -k AGT 
- -t 14.475142210 -s 23 -d -1 -p cbr -e 210 -c 2 -a 0 -i 3 -k AGT
h -t 14.475142210 -s 23 -d -1 -p cbr -e 210 -c 2 -a 0 -i 3 -k AGT
+ -t 14.493808877 -s 23 -d -1 -p cbr -e 210 -c 2 -a 0 -i 4 -k AGT 
- -t 14.493808877 -s 23 -d -1 -p cbr -e 210 -c 2 -a 0 -i 4 -k AGT
h -t 14.493808877 -s 23 -d -1 -p cbr -e 210 -c 2 -a 0 -i 4 -k AGT
+ -t 14.512475543 -s 23 -d -1 -p cbr -e 210 -c 2 -a 0 -i 5 -k AGT 
- -t 14.512475543 -s 23 -d -1 -p cbr -e 210 -c 2 -a 0 -i 5 -k AGT
h -t 14.512475543 -s 23 -d -1 -p cbr -e 210 -c 2 -a 0 -i 5 -k AGT
+ -t 14.531142210 -s 23 -d -1 -p cbr -e 210 -c 2 -a 0 -i 6 -k AGT 
- -t 14.531142210 -s 23 -d -1 -p cbr -e 210 -c 2 -a 0 -i 6 -k AGT
h -t 14.531142210 -s 23 -d -1 -p cbr -e 210 -c 2 -a 0 -i 6 -k AGT
+ -t 14.549808877 -s 23 -d -1 -p cbr -e 210 -c 2 -a 0 -i 7 -k AGT 
- -t 14.549808877 -s 23 -d -1 -p cbr -e 210 -c 2 -a 0 -i 7 -k AGT
h -t 14.549808877 -s 23 -d -1 -p cbr -e 210 -c 2 -a 0 -i 7 -k AGT
+ -t 14.568475543 -s 23 -d -1 -p cbr -e 210 -c 2 -a 0 -i 8 -k AGT 
- -t 14.568475543 -s 23 -d -1 -p cbr -e 210 -c 2 -a 0 -i 8 -k AGT
h -t 14.568475543 -s 23 -d -1 -p cbr -e 210 -c 2 -a 0 -i 8 -k AGT
+ -t 14.587142210 -s 23 -d -1 -p cbr -e 210 -c 2 -a 0 -i 9 -k AGT 
- -t 14.587142210 -s 23 -d -1 -p cbr -e 210 -c 2 -a 0 -i 9 -k AGT
h -t 14.587142210 -s 23 -d -1 -p cbr -e 210 -c 2 -a 0 -i 9 -k AGT
+ -t 14.605808877 -s 23 -d -1 -p cbr -e 210 -c 2 -a 0 -i 10 -k AGT 
- -t 14.605808877 -s 23 -d -1 -p cbr -e 210 -c 2 -a 0 -i 10 -k AGT
h -t 14.605808877 -s 23 -d -1 -p cbr -e 210 -c 2 -a 0 -i 10 -k AGT
+ -t 14.624475543 -s 23 -d -1 -p cbr -e 210 -c 2 -a 0 -i 11 -k AGT 
- -t 14.624475543 -s 23 -d -1 -p cbr -e 210 -c 2 -a 0 -i 11 -k AGT
h -t 14.624475543 -s 23 -d -1 -p cbr -e 210 -c 2 -a 0 -i 11 -k AGT
+ -t 14.643142210 -s 23 -d -1 -p cbr -e 210 -c 2 -a 0 -i 12 -k AGT 
- -t 14.643142210 -s 23 -d -1 -p cbr -e 210 -c 2 -a 0 -i 12 -k AGT
h -t 14.643142210 -s 23 -d -1 -p cbr -e 210 -c 2 -a 0 -i 12 -k AGT
+ -t 14.661808877 -s 23 -d -1 -p cbr -e 210 -c 2 -a 0 -i 13 -k AGT 
- -t 14.661808877 -s 23 -d -1 -p cbr -e 210 -c 2 -a 0 -i 13 -k AGT
h -t 14.661808877 -s 23 -d -1 -p cbr -e 210 -c 2 -a 0 -i 13 -k AGT
+ -t 14.680475543 -s 23 -d -1 -p cbr -e 210 -c 2 -a 0 -i 14 -k AGT 
- -t 14.680475543 -s 23 -d -1 -p cbr -e 210 -c 2 -a 0 -i 14 -k AGT
h -t 14.680475543 -s 23 -d -1 -p cbr -e 210 -c 2 -a 0 -i 14 -k AGT
+ -t 14.699142210 -s 23 -d -1 -p cbr -e 210 -c 2 -a 0 -i 15 -k AGT 
- -t 14.699142210 -s 23 -d -1 -p cbr -e 210 -c 2 -a 0 -i 15 -k AGT
h -t 14.699142210 -s 23 -d -1 -p cbr -e 210 -c 2 -a 0 -i 15 -k AGT
+ -t 14.717808877 -s 23 -d -1 -p cbr -e 210 -c 2 -a 0 -i 16 -k AGT 
- -t 14.717808877 -s 23 -d -1 -p cbr -e 210 -c 2 -a 0 -i 16 -k AGT
h -t 14.717808877 -s 23 -d -1 -p cbr -e 210 -c 2 -a 0 -i 16 -k AGT
+ -t 14.736475543 -s 23 -d -1 -p cbr -e 210 -c 2 -a 0 -i 17 -k AGT 
- -t 14.736475543 -s 23 -d -1 -p cbr -e 210 -c 2 -a 0 -i 17 -k AGT
h -t 14.736475543 -s 23 -d -1 -p cbr -e 210 -c 2 -a 0 -i 17 -k AGT
+ -t 14.755142210 -s 23 -d -1 -p cbr -e 210 -c 2 -a 0 -i 18 -k AGT 
- -t 14.755142210 -s 23 -d -1 -p cbr -e 210 -c 2 -a 0 -i 18 -k AGT
h -t 14.755142210 -s 23 -d -1 -p cbr -e 210 -c 2 -a 0 -i 18 -k AGT
+ -t 14.773808877 -s 23 -d -1 -p cbr -e 210 -c 2 -a 0 -i 19 -k AGT 
- -t 14.773808877 -s 23 -d -1 -p cbr -e 210 -c 2 -a 0 -i 19 -k AGT
h -t 14.773808877 -s 23 -d -1 -p cbr -e 210 -c 2 -a 0 -i 19 -k AGT
+ -t 14.792475543 -s 23 -d -1 -p cbr -e 210 -c 2 -a 0 -i 20 -k AGT 
- -t 14.792475543 -s 23 -d -1 -p cbr -e 210 -c 2 -a 0 -i 20 -k AGT
h -t 14.792475543 -s 23 -d -1 -p cbr -e 210 -c 2 -a 0 -i 20 -k AGT
+ -t 14.811142210 -s 23 -d -1 -p cbr -e 210 -c 2 -a 0 -i 21 -k AGT 
- -t 14.811142210 -s 23 -d -1 -p cbr -e 210 -c 2 -a 0 -i 21 -k AGT
h -t 14.811142210 -s 23 -d -1 -p cbr -e 210 -c 2 -a 0 -i 21 -k AGT
+ -t 14.829808877 -s 23 -d -1 -p cbr -e 210 -c 2 -a 0 -i 22 -k AGT 
- -t 14.829808877 -s 23 -d -1 -p cbr -e 210 -c 2 -a 0 -i 22 -k AGT
h -t 14.829808877 -s 23 -d -1 -p cbr -e 210 -c 2 -a 0 -i 22 -k AGT
+ -t 14.848475543 -s 23 -d -1 -p cbr -e 210 -c 2 -a 0 -i 23 -k AGT 
- -t 14.848475543 -s 23 -d -1 -p cbr -e 210 -c 2 -a 0 -i 23 -k AGT
h -t 14.848475543 -s 23 -d -1 -p cbr -e 210 -c 2 -a 0 -i 23 -k AGT
+ -t 14.867142210 -s 23 -d -1 -p cbr -e 210 -c 2 -a 0 -i 24 -k AGT 
- -t 14.867142210 -s 23 -d -1 -p cbr -e 210 -c 2 -a 0 -i 24 -k AGT
h -t 14.867142210 -s 23 -d -1 -p cbr -e 210 -c 2 -a 0 -i 24 -k AGT
+ -t 14.885808877 -s 23 -d -1 -p cbr -e 210 -c 2 -a 0 -i 25 -k AGT 
- -t 14.885808877 -s 23 -d -1 -p cbr -e 210 -c 2 -a 0 -i 25 -k AGT
h -t 14.885808877 -s 23 -d -1 -p cbr -e 210 -c 2 -a 0 -i 25 -k AGT
+ -t 14.904475543 -s 23 -d -1 -p cbr -e 210 -c 2 -a 0 -i 26 -k AGT 
- -t 14.904475543 -s 23 -d -1 -p cbr -e 210 -c 2 -a 0 -i 26 -k AGT
h -t 14.904475543 -s 23 -d -1 -p cbr -e 210 -c 2 -a 0 -i 26 -k AGT
+ -t 14.923142210 -s 23 -d -1 -p cbr -e 210 -c 2 -a 0 -i 27 -k AGT 
- -t 14.923142210 -s 23 -d -1 -p cbr -e 210 -c 2 -a 0 -i 27 -k AGT
h -t 14.923142210 -s 23 -d -1 -p cbr -e 210 -c 2 -a 0 -i 27 -k AGT
+ -t 14.941808877 -s 23 -d -1 -p cbr -e 210 -c 2 -a 0 -i 28 -k AGT 
- -t 14.941808877 -s 23 -d -1 -p cbr -e 210 -c 2 -a 0 -i 28 -k AGT
h -t 14.941808877 -s 23 -d -1 -p cbr -e 210 -c 2 -a 0 -i 28 -k AGT
+ -t 14.960475543 -s 23 -d -1 -p cbr -e 210 -c 2 -a 0 -i 29 -k AGT 
- -t 14.960475543 -s 23 -d -1 -p cbr -e 210 -c 2 -a 0 -i 29 -k AGT
h -t 14.960475543 -s 23 -d -1 -p cbr -e 210 -c 2 -a 0 -i 29 -k AGT
+ -t 14.979142210 -s 23 -d -1 -p cbr -e 210 -c 2 -a 0 -i 30 -k AGT 
- -t 14.979142210 -s 23 -d -1 -p cbr -e 210 -c 2 -a 0 -i 30 -k AGT
h -t 14.979142210 -s 23 -d -1 -p cbr -e 210 -c 2 -a 0 -i 30 -k AGT
+ -t 14.997808877 -s 23 -d -1 -p cbr -e 210 -c 2 -a 0 -i 31 -k AGT 
- -t 14.997808877 -s 23 -d -1 -p cbr -e 210 -c 2 -a 0 -i 31 -k AGT
h -t 14.997808877 -s 23 -d -1 -p cbr -e 210 -c 2 -a 0 -i 31 -k AGT
+ -t 15.016475543 -s 23 -d -1 -p cbr -e 210 -c 2 -a 0 -i 32 -k AGT 
- -t 15.016475543 -s 23 -d -1 -p cbr -e 210 -c 2 -a 0 -i 32 -k AGT
h -t 15.016475543 -s 23 -d -1 -p cbr -e 210 -c 2 -a 0 -i 32 -k AGT
+ -t 15.035142210 -s 23 -d -1 -p cbr -e 210 -c 2 -a 0 -i 33 -k AGT 
- -t 15.035142210 -s 23 -d -1 -p cbr -e 210 -c 2 -a 0 -i 33 -k AGT
h -t 15.035142210 -s 23 -d -1 -p cbr -e 210 -c 2 -a 0 -i 33 -k AGT
+ -t 15.053808877 -s 23 -d -1 -p cbr -e 210 -c 2 -a 0 -i 34 -k AGT 
- -t 15.053808877 -s 23 -d -1 -p cbr -e 210 -c 2 -a 0 -i 34 -k AGT
h -t 15.053808877 -s 23 -d -1 -p cbr -e 210 -c 2 -a 0 -i 34 -k AGT
+ -t 15.072475543 -s 23 -d -1 -p cbr -e 210 -c 2 -a 0 -i 35 -k AGT 
- -t 15.072475543 -s 23 -d -1 -p cbr -e 210 -c 2 -a 0 -i 35 -k AGT
h -t 15.072475543 -s 23 -d -1 -p cbr -e 210 -c 2 -a 0 -i 35 -k AGT
+ -t 15.091142210 -s 23 -d -1 -p cbr -e 210 -c 2 -a 0 -i 36 -k AGT 
- -t 15.091142210 -s 23 -d -1 -p cbr -e 210 -c 2 -a 0 -i 36 -k AGT
h -t 15.091142210 -s 23 -d -1 -p cbr -e 210 -c 2 -a 0 -i 36 -k AGT
+ -t 15.109808877 -s 23 -d -1 -p cbr -e 210 -c 2 -a 0 -i 37 -k AGT 
- -t 15.109808877 -s 23 -d -1 -p cbr -e 210 -c 2 -a 0 -i 37 -k AGT
h -t 15.109808877 -s 23 -d -1 -p cbr -e 210 -c 2 -a 0 -i 37 -k AGT
+ -t 15.128475543 -s 23 -d -1 -p cbr -e 210 -c 2 -a 0 -i 38 -k AGT 
- -t 15.128475543 -s 23 -d -1 -p cbr -e 210 -c 2 -a 0 -i 38 -k AGT
h -t 15.128475543 -s 23 -d -1 -p cbr -e 210 -c 2 -a 0 -i 38 -k AGT
+ -t 15.147142210 -s 23 -d -1 -p cbr -e 210 -c 2 -a 0 -i 39 -k AGT 
- -t 15.147142210 -s 23 -d -1 -p cbr -e 210 -c 2 -a 0 -i 39 -k AGT
h -t 15.147142210 -s 23 -d -1 -p cbr -e 210 -c 2 -a 0 -i 39 -k AGT
+ -t 15.165808877 -s 23 -d -1 -p cbr -e 210 -c 2 -a 0 -i 40 -k AGT 
- -t 15.165808877 -s 23 -d -1 -p cbr -e 210 -c 2 -a 0 -i 40 -k AGT
h -t 15.165808877 -s 23 -d -1 -p cbr -e 210 -c 2 -a 0 -i 40 -k AGT
+ -t 15.184475543 -s 23 -d -1 -p cbr -e 210 -c 2 -a 0 -i 41 -k AGT 
- -t 15.184475543 -s 23 -d -1 -p cbr -e 210 -c 2 -a 0 -i 41 -k AGT
h -t 15.184475543 -s 23 -d -1 -p cbr -e 210 -c 2 -a 0 -i 41 -k AGT
+ -t 15.203142210 -s 23 -d -1 -p cbr -e 210 -c 2 -a 0 -i 42 -k AGT 
- -t 15.203142210 -s 23 -d -1 -p cbr -e 210 -c 2 -a 0 -i 42 -k AGT
h -t 15.203142210 -s 23 -d -1 -p cbr -e 210 -c 2 -a 0 -i 42 -k AGT
+ -t 15.221808877 -s 23 -d -1 -p cbr -e 210 -c 2 -a 0 -i 43 -k AGT 
- -t 15.221808877 -s 23 -d -1 -p cbr -e 210 -c 2 -a 0 -i 43 -k AGT
h -t 15.221808877 -s 23 -d -1 -p cbr -e 210 -c 2 -a 0 -i 43 -k AGT
+ -t 15.240475543 -s 23 -d -1 -p cbr -e 210 -c 2 -a 0 -i 44 -k AGT 
- -t 15.240475543 -s 23 -d -1 -p cbr -e 210 -c 2 -a 0 -i 44 -k AGT
h -t 15.240475543 -s 23 -d -1 -p cbr -e 210 -c 2 -a 0 -i 44 -k AGT
+ -t 15.259142210 -s 23 -d -1 -p cbr -e 210 -c 2 -a 0 -i 45 -k AGT 
- -t 15.259142210 -s 23 -d -1 -p cbr -e 210 -c 2 -a 0 -i 45 -k AGT
h -t 15.259142210 -s 23 -d -1 -p cbr -e 210 -c 2 -a 0 -i 45 -k AGT
+ -t 15.277808877 -s 23 -d -1 -p cbr -e 210 -c 2 -a 0 -i 46 -k AGT 
- -t 15.277808877 -s 23 -d -1 -p cbr -e 210 -c 2 -a 0 -i 46 -k AGT
h -t 15.277808877 -s 23 -d -1 -p cbr -e 210 -c 2 -a 0 -i 46 -k AGT
+ -t 15.296475543 -s 23 -d -1 -p cbr -e 210 -c 2 -a 0 -i 47 -k AGT 
- -t 15.296475543 -s 23 -d -1 -p cbr -e 210 -c 2 -a 0 -i 47 -k AGT
h -t 15.296475543 -s 23 -d -1 -p cbr -e 210 -c 2 -a 0 -i 47 -k AGT
+ -t 15.315142210 -s 23 -d -1 -p cbr -e 210 -c 2 -a 0 -i 48 -k AGT 
- -t 15.315142210 -s 23 -d -1 -p cbr -e 210 -c 2 -a 0 -i 48 -k AGT
h -t 15.315142210 -s 23 -d -1 -p cbr -e 210 -c 2 -a 0 -i 48 -k AGT
+ -t 15.333808877 -s 23 -d -1 -p cbr -e 210 -c 2 -a 0 -i 49 -k AGT 
- -t 15.333808877 -s 23 -d -1 -p cbr -e 210 -c 2 -a 0 -i 49 -k AGT
h -t 15.333808877 -s 23 -d -1 -p cbr -e 210 -c 2 -a 0 -i 49 -k AGT
+ -t 15.352475543 -s 23 -d -1 -p cbr -e 210 -c 2 -a 0 -i 50 -k AGT 
- -t 15.352475543 -s 23 -d -1 -p cbr -e 210 -c 2 -a 0 -i 50 -k AGT
h -t 15.352475543 -s 23 -d -1 -p cbr -e 210 -c 2 -a 0 -i 50 -k AGT
+ -t 15.371142210 -s 23 -d -1 -p cbr -e 210 -c 2 -a 0 -i 51 -k AGT 
- -t 15.371142210 -s 23 -d -1 -p cbr -e 210 -c 2 -a 0 -i 51 -k AGT
h -t 15.371142210 -s 23 -d -1 -p cbr -e 210 -c 2 -a 0 -i 51 -k AGT
+ -t 15.389808877 -s 23 -d -1 -p cbr -e 210 -c 2 -a 0 -i 52 -k AGT 
- -t 15.389808877 -s 23 -d -1 -p cbr -e 210 -c 2 -a 0 -i 52 -k AGT
h -t 15.389808877 -s 23 -d -1 -p cbr -e 210 -c 2 -a 0 -i 52 -k AGT
+ -t 15.408475543 -s 23 -d -1 -p cbr -e 210 -c 2 -a 0 -i 53 -k AGT 
- -t 15.408475543 -s 23 -d -1 -p cbr -e 210 -c 2 -a 0 -i 53 -k AGT
h -t 15.408475543 -s 23 -d -1 -p cbr -e 210 -c 2 -a 0 -i 53 -k AGT
+ -t 15.427142210 -s 23 -d -1 -p cbr -e 210 -c 2 -a 0 -i 54 -k AGT 
- -t 15.427142210 -s 23 -d -1 -p cbr -e 210 -c 2 -a 0 -i 54 -k AGT
h -t 15.427142210 -s 23 -d -1 -p cbr -e 210 -c 2 -a 0 -i 54 -k AGT
+ -t 15.445808877 -s 23 -d -1 -p cbr -e 210 -c 2 -a 0 -i 55 -k AGT 
- -t 15.445808877 -s 23 -d -1 -p cbr -e 210 -c 2 -a 0 -i 55 -k AGT
h -t 15.445808877 -s 23 -d -1 -p cbr -e 210 -c 2 -a 0 -i 55 -k AGT
+ -t 15.464475543 -s 23 -d -1 -p cbr -e 210 -c 2 -a 0 -i 56 -k AGT 
- -t 15.464475543 -s 23 -d -1 -p cbr -e 210 -c 2 -a 0 -i 56 -k AGT
h -t 15.464475543 -s 23 -d -1 -p cbr -e 210 -c 2 -a 0 -i 56 -k AGT
+ -t 15.483142210 -s 23 -d -1 -p cbr -e 210 -c 2 -a 0 -i 57 -k AGT 
- -t 15.483142210 -s 23 -d -1 -p cbr -e 210 -c 2 -a 0 -i 57 -k AGT
h -t 15.483142210 -s 23 -d -1 -p cbr -e 210 -c 2 -a 0 -i 57 -k AGT
+ -t 15.501808877 -s 23 -d -1 -p cbr -e 210 -c 2 -a 0 -i 58 -k AGT 
- -t 15.501808877 -s 23 -d -1 -p cbr -e 210 -c 2 -a 0 -i 58 -k AGT
h -t 15.501808877 -s 23 -d -1 -p cbr -e 210 -c 2 -a 0 -i 58 -k AGT
+ -t 15.520475543 -s 23 -d -1 -p cbr -e 210 -c 2 -a 0 -i 59 -k AGT 
- -t 15.520475543 -s 23 -d -1 -p cbr -e 210 -c 2 -a 0 -i 59 -k AGT
h -t 15.520475543 -s 23 -d -1 -p cbr -e 210 -c 2 -a 0 -i 59 -k AGT
+ -t 15.539142210 -s 23 -d -1 -p cbr -e 210 -c 2 -a 0 -i 60 -k AGT 
- -t 15.539142210 -s 23 -d -1 -p cbr -e 210 -c 2 -a 0 -i 60 -k AGT
h -t 15.539142210 -s 23 -d -1 -p cbr -e 210 -c 2 -a 0 -i 60 -k AGT
+ -t 15.557808877 -s 23 -d -1 -p cbr -e 210 -c 2 -a 0 -i 61 -k AGT 
- -t 15.557808877 -s 23 -d -1 -p cbr -e 210 -c 2 -a 0 -i 61 -k AGT
h -t 15.557808877 -s 23 -d -1 -p cbr -e 210 -c 2 -a 0 -i 61 -k AGT
+ -t 15.576475543 -s 23 -d -1 -p cbr -e 210 -c 2 -a 0 -i 62 -k AGT 
- -t 15.576475543 -s 23 -d -1 -p cbr -e 210 -c 2 -a 0 -i 62 -k AGT
h -t 15.576475543 -s 23 -d -1 -p cbr -e 210 -c 2 -a 0 -i 62 -k AGT
+ -t 15.595142210 -s 23 -d -1 -p cbr -e 210 -c 2 -a 0 -i 63 -k AGT 
- -t 15.595142210 -s 23 -d -1 -p cbr -e 210 -c 2 -a 0 -i 63 -k AGT
h -t 15.595142210 -s 23 -d -1 -p cbr -e 210 -c 2 -a 0 -i 63 -k AGT
+ -t 15.613808877 -s 23 -d -1 -p cbr -e 210 -c 2 -a 0 -i 64 -k AGT 
- -t 15.613808877 -s 23 -d -1 -p cbr -e 210 -c 2 -a 0 -i 64 -k AGT
h -t 15.613808877 -s 23 -d -1 -p cbr -e 210 -c 2 -a 0 -i 64 -k AGT
d -t 15.613808877 -s 23 -d -1 -p cbr -e 230 -c 2 -a 0 -i 0 -k RTR
+ -t 15.632475543 -s 23 -d -1 -p cbr -e 210 -c 2 -a 0 -i 65 -k AGT 
- -t 15.632475543 -s 23 -d -1 -p cbr -e 210 -c 2 -a 0 -i 65 -k AGT
h -t 15.632475543 -s 23 -d -1 -p cbr -e 210 -c 2 -a 0 -i 65 -k AGT
d -t 15.632475543 -s 23 -d -1 -p cbr -e 230 -c 2 -a 0 -i 1 -k RTR
+ -t 15.651142210 -s 23 -d -1 -p cbr -e 210 -c 2 -a 0 -i 66 -k AGT 
- -t 15.651142210 -s 23 -d -1 -p cbr -e 210 -c 2 -a 0 -i 66 -k AGT
h -t 15.651142210 -s 23 -d -1 -p cbr -e 210 -c 2 -a 0 -i 66 -k AGT
d -t 15.651142210 -s 23 -d -1 -p cbr -e 230 -c 2 -a 0 -i 2 -k RTR
+ -t 15.669808877 -s 23 -d -1 -p cbr -e 210 -c 2 -a 0 -i 67 -k AGT 
- -t 15.669808877 -s 23 -d -1 -p cbr -e 210 -c 2 -a 0 -i 67 -k AGT
h -t 15.669808877 -s 23 -d -1 -p cbr -e 210 -c 2 -a 0 -i 67 -k AGT
d -t 15.669808877 -s 23 -d -1 -p cbr -e 230 -c 2 -a 0 -i 3 -k RTR
+ -t 15.688475543 -s 23 -d -1 -p cbr -e 210 -c 2 -a 0 -i 68 -k AGT 
- -t 15.688475543 -s 23 -d -1 -p cbr -e 210 -c 2 -a 0 -i 68 -k AGT
h -t 15.688475543 -s 23 -d -1 -p cbr -e 210 -c 2 -a 0 -i 68 -k AGT
d -t 15.688475543 -s 23 -d -1 -p cbr -e 230 -c 2 -a 0 -i 4 -k RTR
+ -t 15.707142210 -s 23 -d -1 -p cbr -e 210 -c 2 -a 0 -i 69 -k AGT 
- -t 15.707142210 -s 23 -d -1 -p cbr -e 210 -c 2 -a 0 -i 69 -k AGT
h -t 15.707142210 -s 23 -d -1 -p cbr -e 210 -c 2 -a 0 -i 69 -k AGT
d -t 15.707142210 -s 23 -d -1 -p cbr -e 230 -c 2 -a 0 -i 5 -k RTR
+ -t 15.725808877 -s 23 -d -1 -p cbr -e 210 -c 2 -a 0 -i 70 -k AGT 
- -t 15.725808877 -s 23 -d -1 -p cbr -e 210 -c 2 -a 0 -i 70 -k AGT
h -t 15.725808877 -s 23 -d -1 -p cbr -e 210 -c 2 -a 0 -i 70 -k AGT
d -t 15.725808877 -s 23 -d -1 -p cbr -e 230 -c 2 -a 0 -i 6 -k RTR
+ -t 15.744475543 -s 23 -d -1 -p cbr -e 210 -c 2 -a 0 -i 71 -k AGT 
- -t 15.744475543 -s 23 -d -1 -p cbr -e 210 -c 2 -a 0 -i 71 -k AGT
h -t 15.744475543 -s 23 -d -1 -p cbr -e 210 -c 2 -a 0 -i 71 -k AGT
d -t 15.744475543 -s 23 -d -1 -p cbr -e 230 -c 2 -a 0 -i 7 -k RTR
+ -t 15.763142210 -s 23 -d -1 -p cbr -e 210 -c 2 -a 0 -i 72 -k AGT 
- -t 15.763142210 -s 23 -d -1 -p cbr -e 210 -c 2 -a 0 -i 72 -k AGT
h -t 15.763142210 -s 23 -d -1 -p cbr -e 210 -c 2 -a 0 -i 72 -k AGT
d -t 15.763142210 -s 23 -d -1 -p cbr -e 230 -c 2 -a 0 -i 8 -k RTR
+ -t 15.781808877 -s 23 -d -1 -p cbr -e 210 -c 2 -a 0 -i 73 -k AGT 
- -t 15.781808877 -s 23 -d -1 -p cbr -e 210 -c 2 -a 0 -i 73 -k AGT
h -t 15.781808877 -s 23 -d -1 -p cbr -e 210 -c 2 -a 0 -i 73 -k AGT
d -t 15.781808877 -s 23 -d -1 -p cbr -e 230 -c 2 -a 0 -i 9 -k RTR
+ -t 15.800475543 -s 23 -d -1 -p cbr -e 210 -c 2 -a 0 -i 74 -k AGT 
- -t 15.800475543 -s 23 -d -1 -p cbr -e 210 -c 2 -a 0 -i 74 -k AGT
h -t 15.800475543 -s 23 -d -1 -p cbr -e 210 -c 2 -a 0 -i 74 -k AGT
d -t 15.800475543 -s 23 -d -1 -p cbr -e 230 -c 2 -a 0 -i 10 -k RTR
+ -t 15.819142210 -s 23 -d -1 -p cbr -e 210 -c 2 -a 0 -i 75 -k AGT 
- -t 15.819142210 -s 23 -d -1 -p cbr -e 210 -c 2 -a 0 -i 75 -k AGT
h -t 15.819142210 -s 23 -d -1 -p cbr -e 210 -c 2 -a 0 -i 75 -k AGT
d -t 15.819142210 -s 23 -d -1 -p cbr -e 230 -c 2 -a 0 -i 11 -k RTR
+ -t 15.837808877 -s 23 -d -1 -p cbr -e 210 -c 2 -a 0 -i 76 -k AGT 
- -t 15.837808877 -s 23 -d -1 -p cbr -e 210 -c 2 -a 0 -i 76 -k AGT
h -t 15.837808877 -s 23 -d -1 -p cbr -e 210 -c 2 -a 0 -i 76 -k AGT
d -t 15.837808877 -s 23 -d -1 -p cbr -e 230 -c 2 -a 0 -i 12 -k RTR
+ -t 15.856475543 -s 23 -d -1 -p cbr -e 210 -c 2 -a 0 -i 77 -k AGT 
- -t 15.856475543 -s 23 -d -1 -p cbr -e 210 -c 2 -a 0 -i 77 -k AGT
h -t 15.856475543 -s 23 -d -1 -p cbr -e 210 -c 2 -a 0 -i 77 -k AGT
d -t 15.856475543 -s 23 -d -1 -p cbr -e 230 -c 2 -a 0 -i 13 -k RTR
+ -t 15.875142210 -s 23 -d -1 -p cbr -e 210 -c 2 -a 0 -i 78 -k AGT 
- -t 15.875142210 -s 23 -d -1 -p cbr -e 210 -c 2 -a 0 -i 78 -k AGT
h -t 15.875142210 -s 23 -d -1 -p cbr -e 210 -c 2 -a 0 -i 78 -k AGT
d -t 15.875142210 -s 23 -d -1 -p cbr -e 230 -c 2 -a 0 -i 14 -k RTR
+ -t 15.893808877 -s 23 -d -1 -p cbr -e 210 -c 2 -a 0 -i 79 -k AGT 
- -t 15.893808877 -s 23 -d -1 -p cbr -e 210 -c 2 -a 0 -i 79 -k AGT
h -t 15.893808877 -s 23 -d -1 -p cbr -e 210 -c 2 -a 0 -i 79 -k AGT
d -t 15.893808877 -s 23 -d -1 -p cbr -e 230 -c 2 -a 0 -i 15 -k RTR
+ -t 15.912475543 -s 23 -d -1 -p cbr -e 210 -c 2 -a 0 -i 80 -k AGT 
- -t 15.912475543 -s 23 -d -1 -p cbr -e 210 -c 2 -a 0 -i 80 -k AGT
h -t 15.912475543 -s 23 -d -1 -p cbr -e 210 -c 2 -a 0 -i 80 -k AGT
d -t 15.912475543 -s 23 -d -1 -p cbr -e 230 -c 2 -a 0 -i 16 -k RTR
+ -t 15.931142210 -s 23 -d -1 -p cbr -e 210 -c 2 -a 0 -i 81 -k AGT 
- -t 15.931142210 -s 23 -d -1 -p cbr -e 210 -c 2 -a 0 -i 81 -k AGT
h -t 15.931142210 -s 23 -d -1 -p cbr -e 210 -c 2 -a 0 -i 81 -k AGT
d -t 15.931142210 -s 23 -d -1 -p cbr -e 230 -c 2 -a 0 -i 17 -k RTR
+ -t 15.949808877 -s 23 -d -1 -p cbr -e 210 -c 2 -a 0 -i 82 -k AGT 
- -t 15.949808877 -s 23 -d -1 -p cbr -e 210 -c 2 -a 0 -i 82 -k AGT
h -t 15.949808877 -s 23 -d -1 -p cbr -e 210 -c 2 -a 0 -i 82 -k AGT
d -t 15.949808877 -s 23 -d -1 -p cbr -e 230 -c 2 -a 0 -i 18 -k RTR
+ -t 15.968475543 -s 23 -d -1 -p cbr -e 210 -c 2 -a 0 -i 83 -k AGT 
- -t 15.968475543 -s 23 -d -1 -p cbr -e 210 -c 2 -a 0 -i 83 -k AGT
h -t 15.968475543 -s 23 -d -1 -p cbr -e 210 -c 2 -a 0 -i 83 -k AGT
d -t 15.968475543 -s 23 -d -1 -p cbr -e 230 -c 2 -a 0 -i 19 -k RTR
+ -t 15.987142210 -s 23 -d -1 -p cbr -e 210 -c 2 -a 0 -i 84 -k AGT 
- -t 15.987142210 -s 23 -d -1 -p cbr -e 210 -c 2 -a 0 -i 84 -k AGT
h -t 15.987142210 -s 23 -d -1 -p cbr -e 210 -c 2 -a 0 -i 84 -k AGT
+ -t 16.005808877 -s 23 -d -1 -p cbr -e 210 -c 2 -a 0 -i 85 -k AGT 
- -t 16.005808877 -s 23 -d -1 -p cbr -e 210 -c 2 -a 0 -i 85 -k AGT
h -t 16.005808877 -s 23 -d -1 -p cbr -e 210 -c 2 -a 0 -i 85 -k AGT
+ -t 16.024475543 -s 23 -d -1 -p cbr -e 210 -c 2 -a 0 -i 86 -k AGT 
- -t 16.024475543 -s 23 -d -1 -p cbr -e 210 -c 2 -a 0 -i 86 -k AGT
h -t 16.024475543 -s 23 -d -1 -p cbr -e 210 -c 2 -a 0 -i 86 -k AGT
+ -t 16.043142210 -s 23 -d -1 -p cbr -e 210 -c 2 -a 0 -i 87 -k AGT 
- -t 16.043142210 -s 23 -d -1 -p cbr -e 210 -c 2 -a 0 -i 87 -k AGT
h -t 16.043142210 -s 23 -d -1 -p cbr -e 210 -c 2 -a 0 -i 87 -k AGT
+ -t 16.061808877 -s 23 -d -1 -p cbr -e 210 -c 2 -a 0 -i 88 -k AGT 
- -t 16.061808877 -s 23 -d -1 -p cbr -e 210 -c 2 -a 0 -i 88 -k AGT
h -t 16.061808877 -s 23 -d -1 -p cbr -e 210 -c 2 -a 0 -i 88 -k AGT
+ -t 16.080475543 -s 23 -d -1 -p cbr -e 210 -c 2 -a 0 -i 89 -k AGT 
- -t 16.080475543 -s 23 -d -1 -p cbr -e 210 -c 2 -a 0 -i 89 -k AGT
h -t 16.080475543 -s 23 -d -1 -p cbr -e 210 -c 2 -a 0 -i 89 -k AGT
+ -t 16.099142210 -s 23 -d -1 -p cbr -e 210 -c 2 -a 0 -i 90 -k AGT 
- -t 16.099142210 -s 23 -d -1 -p cbr -e 210 -c 2 -a 0 -i 90 -k AGT
h -t 16.099142210 -s 23 -d -1 -p cbr -e 210 -c 2 -a 0 -i 90 -k AGT
+ -t 16.117808877 -s 23 -d -1 -p cbr -e 210 -c 2 -a 0 -i 91 -k AGT 
- -t 16.117808877 -s 23 -d -1 -p cbr -e 210 -c 2 -a 0 -i 91 -k AGT
h -t 16.117808877 -s 23 -d -1 -p cbr -e 210 -c 2 -a 0 -i 91 -k AGT
+ -t 16.136475543 -s 23 -d -1 -p cbr -e 210 -c 2 -a 0 -i 92 -k AGT 
- -t 16.136475543 -s 23 -d -1 -p cbr -e 210 -c 2 -a 0 -i 92 -k AGT
h -t 16.136475543 -s 23 -d -1 -p cbr -e 210 -c 2 -a 0 -i 92 -k AGT
+ -t 16.155142210 -s 23 -d -1 -p cbr -e 210 -c 2 -a 0 -i 93 -k AGT 
- -t 16.155142210 -s 23 -d -1 -p cbr -e 210 -c 2 -a 0 -i 93 -k AGT
h -t 16.155142210 -s 23 -d -1 -p cbr -e 210 -c 2 -a 0 -i 93 -k AGT
+ -t 16.173808877 -s 23 -d -1 -p cbr -e 210 -c 2 -a 0 -i 94 -k AGT 
- -t 16.173808877 -s 23 -d -1 -p cbr -e 210 -c 2 -a 0 -i 94 -k AGT
h -t 16.173808877 -s 23 -d -1 -p cbr -e 210 -c 2 -a 0 -i 94 -k AGT
+ -t 16.192475543 -s 23 -d -1 -p cbr -e 210 -c 2 -a 0 -i 95 -k AGT 
- -t 16.192475543 -s 23 -d -1 -p cbr -e 210 -c 2 -a 0 -i 95 -k AGT
h -t 16.192475543 -s 23 -d -1 -p cbr -e 210 -c 2 -a 0 -i 95 -k AGT
+ -t 16.211142210 -s 23 -d -1 -p cbr -e 210 -c 2 -a 0 -i 96 -k AGT 
- -t 16.211142210 -s 23 -d -1 -p cbr -e 210 -c 2 -a 0 -i 96 -k AGT
h -t 16.211142210 -s 23 -d -1 -p cbr -e 210 -c 2 -a 0 -i 96 -k AGT
+ -t 16.229808877 -s 23 -d -1 -p cbr -e 210 -c 2 -a 0 -i 97 -k AGT 
- -t 16.229808877 -s 23 -d -1 -p cbr -e 210 -c 2 -a 0 -i 97 -k AGT
h -t 16.229808877 -s 23 -d -1 -p cbr -e 210 -c 2 -a 0 -i 97 -k AGT
+ -t 16.248475543 -s 23 -d -1 -p cbr -e 210 -c 2 -a 0 -i 98 -k AGT 
- -t 16.248475543 -s 23 -d -1 -p cbr -e 210 -c 2 -a 0 -i 98 -k AGT
h -t 16.248475543 -s 23 -d -1 -p cbr -e 210 -c 2 -a 0 -i 98 -k AGT
r -t 16.249153667 -s 1 -d 1 -p cbr -e 230 -c 2 -a 0 -i 20 -k AGT
+ -t 16.267142210 -s 23 -d -1 -p cbr -e 210 -c 2 -a 0 -i 99 -k AGT 
- -t 16.267142210 -s 23 -d -1 -p cbr -e 210 -c 2 -a 0 -i 99 -k AGT
h -t 16.267142210 -s 23 -d -1 -p cbr -e 210 -c 2 -a 0 -i 99 -k AGT
+ -t 16.285808877 -s 23 -d -1 -p cbr -e 210 -c 2 -a 0 -i 100 -k AGT 
- -t 16.285808877 -s 23 -d -1 -p cbr -e 210 -c 2 -a 0 -i 100 -k AGT
h -t 16.285808877 -s 23 -d -1 -p cbr -e 210 -c 2 -a 0 -i 100 -k AGT
+ -t 16.304475543 -s 23 -d -1 -p cbr -e 210 -c 2 -a 0 -i 101 -k AGT 
- -t 16.304475543 -s 23 -d -1 -p cbr -e 210 -c 2 -a 0 -i 101 -k AGT
h -t 16.304475543 -s 23 -d -1 -p cbr -e 210 -c 2 -a 0 -i 101 -k AGT
r -t 16.309153667 -s 1 -d 1 -p cbr -e 230 -c 2 -a 0 -i 21 -k AGT
+ -t 16.323142210 -s 23 -d -1 -p cbr -e 210 -c 2 -a 0 -i 102 -k AGT 
- -t 16.323142210 -s 23 -d -1 -p cbr -e 210 -c 2 -a 0 -i 102 -k AGT
h -t 16.323142210 -s 23 -d -1 -p cbr -e 210 -c 2 -a 0 -i 102 -k AGT
+ -t 16.341808877 -s 23 -d -1 -p cbr -e 210 -c 2 -a 0 -i 103 -k AGT 
- -t 16.341808877 -s 23 -d -1 -p cbr -e 210 -c 2 -a 0 -i 103 -k AGT
h -t 16.341808877 -s 23 -d -1 -p cbr -e 210 -c 2 -a 0 -i 103 -k AGT
+ -t 16.360475543 -s 23 -d -1 -p cbr -e 210 -c 2 -a 0 -i 104 -k AGT 
- -t 16.360475543 -s 23 -d -1 -p cbr -e 210 -c 2 -a 0 -i 104 -k AGT
h -t 16.360475543 -s 23 -d -1 -p cbr -e 210 -c 2 -a 0 -i 104 -k AGT
r -t 16.369153667 -s 1 -d 1 -p cbr -e 230 -c 2 -a 0 -i 84 -k AGT
+ -t 16.379142210 -s 23 -d -1 -p cbr -e 210 -c 2 -a 0 -i 105 -k AGT 
- -t 16.379142210 -s 23 -d -1 -p cbr -e 210 -c 2 -a 0 -i 105 -k AGT
h -t 16.379142210 -s 23 -d -1 -p cbr -e 210 -c 2 -a 0 -i 105 -k AGT
+ -t 16.397808877 -s 23 -d -1 -p cbr -e 210 -c 2 -a 0 -i 106 -k AGT 
- -t 16.397808877 -s 23 -d -1 -p cbr -e 210 -c 2 -a 0 -i 106 -k AGT
h -t 16.397808877 -s 23 -d -1 -p cbr -e 210 -c 2 -a 0 -i 106 -k AGT
+ -t 16.416475543 -s 23 -d -1 -p cbr -e 210 -c 2 -a 0 -i 107 -k AGT 
- -t 16.416475543 -s 23 -d -1 -p cbr -e 210 -c 2 -a 0 -i 107 -k AGT
h -t 16.416475543 -s 23 -d -1 -p cbr -e 210 -c 2 -a 0 -i 107 -k AGT
r -t 16.429153667 -s 1 -d 1 -p cbr -e 230 -c 2 -a 0 -i 22 -k AGT
+ -t 16.435142210 -s 23 -d -1 -p cbr -e 210 -c 2 -a 0 -i 108 -k AGT 
- -t 16.435142210 -s 23 -d -1 -p cbr -e 210 -c 2 -a 0 -i 108 -k AGT
h -t 16.435142210 -s 23 -d -1 -p cbr -e 210 -c 2 -a 0 -i 108 -k AGT
+ -t 16.453808877 -s 23 -d -1 -p cbr -e 210 -c 2 -a 0 -i 109 -k AGT 
- -t 16.453808877 -s 23 -d -1 -p cbr -e 210 -c 2 -a 0 -i 109 -k AGT
h -t 16.453808877 -s 23 -d -1 -p cbr -e 210 -c 2 -a 0 -i 109 -k AGT
+ -t 16.472475543 -s 23 -d -1 -p cbr -e 210 -c 2 -a 0 -i 110 -k AGT 
- -t 16.472475543 -s 23 -d -1 -p cbr -e 210 -c 2 -a 0 -i 110 -k AGT
h -t 16.472475543 -s 23 -d -1 -p cbr -e 210 -c 2 -a 0 -i 110 -k AGT
r -t 16.489153667 -s 1 -d 1 -p cbr -e 230 -c 2 -a 0 -i 23 -k AGT
+ -t 16.491142210 -s 23 -d -1 -p cbr -e 210 -c 2 -a 0 -i 111 -k AGT 
- -t 16.491142210 -s 23 -d -1 -p cbr -e 210 -c 2 -a 0 -i 111 -k AGT
h -t 16.491142210 -s 23 -d -1 -p cbr -e 210 -c 2 -a 0 -i 111 -k AGT
+ -t 16.509808877 -s 23 -d -1 -p cbr -e 210 -c 2 -a 0 -i 112 -k AGT 
- -t 16.509808877 -s 23 -d -1 -p cbr -e 210 -c 2 -a 0 -i 112 -k AGT
h -t 16.509808877 -s 23 -d -1 -p cbr -e 210 -c 2 -a 0 -i 112 -k AGT
+ -t 16.528475543 -s 23 -d -1 -p cbr -e 210 -c 2 -a 0 -i 113 -k AGT 
- -t 16.528475543 -s 23 -d -1 -p cbr -e 210 -c 2 -a 0 -i 113 -k AGT
h -t 16.528475543 -s 23 -d -1 -p cbr -e 210 -c 2 -a 0 -i 113 -k AGT
+ -t 16.547142210 -s 23 -d -1 -p cbr -e 210 -c 2 -a 0 -i 114 -k AGT 
- -t 16.547142210 -s 23 -d -1 -p cbr -e 210 -c 2 -a 0 -i 114 -k AGT
h -t 16.547142210 -s 23 -d -1 -p cbr -e 210 -c 2 -a 0 -i 114 -k AGT
r -t 16.549153667 -s 1 -d 1 -p cbr -e 230 -c 2 -a 0 -i 85 -k AGT
+ -t 16.565808877 -s 23 -d -1 -p cbr -e 210 -c 2 -a 0 -i 115 -k AGT 
- -t 16.565808877 -s 23 -d -1 -p cbr -e 210 -c 2 -a 0 -i 115 -k AGT
h -t 16.565808877 -s 23 -d -1 -p cbr -e 210 -c 2 -a 0 -i 115 -k AGT
+ -t 16.584475543 -s 23 -d -1 -p cbr -e 210 -c 2 -a 0 -i 116 -k AGT 
- -t 16.584475543 -s 23 -d -1 -p cbr -e 210 -c 2 -a 0 -i 116 -k AGT
h -t 16.584475543 -s 23 -d -1 -p cbr -e 210 -c 2 -a 0 -i 116 -k AGT
+ -t 16.603142210 -s 23 -d -1 -p cbr -e 210 -c 2 -a 0 -i 117 -k AGT 
- -t 16.603142210 -s 23 -d -1 -p cbr -e 210 -c 2 -a 0 -i 117 -k AGT
h -t 16.603142210 -s 23 -d -1 -p cbr -e 210 -c 2 -a 0 -i 117 -k AGT
+ -t 16.621808877 -s 23 -d -1 -p cbr -e 210 -c 2 -a 0 -i 118 -k AGT 
- -t 16.621808877 -s 23 -d -1 -p cbr -e 210 -c 2 -a 0 -i 118 -k AGT
h -t 16.621808877 -s 23 -d -1 -p cbr -e 210 -c 2 -a 0 -i 118 -k AGT
+ -t 16.640475543 -s 23 -d -1 -p cbr -e 210 -c 2 -a 0 -i 119 -k AGT 
- -t 16.640475543 -s 23 -d -1 -p cbr -e 210 -c 2 -a 0 -i 119 -k AGT
h -t 16.640475543 -s 23 -d -1 -p cbr -e 210 -c 2 -a 0 -i 119 -k AGT
+ -t 16.659142210 -s 23 -d -1 -p cbr -e 210 -c 2 -a 0 -i 120 -k AGT 
- -t 16.659142210 -s 23 -d -1 -p cbr -e 210 -c 2 -a 0 -i 120 -k AGT
h -t 16.659142210 -s 23 -d -1 -p cbr -e 210 -c 2 -a 0 -i 120 -k AGT
r -t 16.669153667 -s 1 -d 1 -p cbr -e 230 -c 2 -a 0 -i 24 -k AGT
+ -t 16.677808877 -s 23 -d -1 -p cbr -e 210 -c 2 -a 0 -i 121 -k AGT 
- -t 16.677808877 -s 23 -d -1 -p cbr -e 210 -c 2 -a 0 -i 121 -k AGT
h -t 16.677808877 -s 23 -d -1 -p cbr -e 210 -c 2 -a 0 -i 121 -k AGT
+ -t 16.696475543 -s 23 -d -1 -p cbr -e 210 -c 2 -a 0 -i 122 -k AGT 
- -t 16.696475543 -s 23 -d -1 -p cbr -e 210 -c 2 -a 0 -i 122 -k AGT
h -t 16.696475543 -s 23 -d -1 -p cbr -e 210 -c 2 -a 0 -i 122 -k AGT
+ -t 16.715142210 -s 23 -d -1 -p cbr -e 210 -c 2 -a 0 -i 123 -k AGT 
- -t 16.715142210 -s 23 -d -1 -p cbr -e 210 -c 2 -a 0 -i 123 -k AGT
h -t 16.715142210 -s 23 -d -1 -p cbr -e 210 -c 2 -a 0 -i 123 -k AGT
r -t 16.729153667 -s 1 -d 1 -p cbr -e 230 -c 2 -a 0 -i 25 -k AGT
+ -t 16.733808877 -s 23 -d -1 -p cbr -e 210 -c 2 -a 0 -i 124 -k AGT 
- -t 16.733808877 -s 23 -d -1 -p cbr -e 210 -c 2 -a 0 -i 124 -k AGT
h -t 16.733808877 -s 23 -d -1 -p cbr -e 210 -c 2 -a 0 -i 124 -k AGT
+ -t 16.752475543 -s 23 -d -1 -p cbr -e 210 -c 2 -a 0 -i 125 -k AGT 
- -t 16.752475543 -s 23 -d -1 -p cbr -e 210 -c 2 -a 0 -i 125 -k AGT
h -t 16.752475543 -s 23 -d -1 -p cbr -e 210 -c 2 -a 0 -i 125 -k AGT
+ -t 16.771142210 -s 23 -d -1 -p cbr -e 210 -c 2 -a 0 -i 126 -k AGT 
- -t 16.771142210 -s 23 -d -1 -p cbr -e 210 -c 2 -a 0 -i 126 -k AGT
h -t 16.771142210 -s 23 -d -1 -p cbr -e 210 -c 2 -a 0 -i 126 -k AGT
r -t 16.789153667 -s 1 -d 1 -p cbr -e 230 -c 2 -a 0 -i 86 -k AGT
+ -t 16.789808877 -s 23 -d -1 -p cbr -e 210 -c 2 -a 0 -i 127 -k AGT 
- -t 16.789808877 -s 23 -d -1 -p cbr -e 210 -c 2 -a 0 -i 127 -k AGT
h -t 16.789808877 -s 23 -d -1 -p cbr -e 210 -c 2 -a 0 -i 127 -k AGT
+ -t 16.808475543 -s 23 -d -1 -p cbr -e 210 -c 2 -a 0 -i 128 -k AGT 
- -t 16.808475543 -s 23 -d -1 -p cbr -e 210 -c 2 -a 0 -i 128 -k AGT
h -t 16.808475543 -s 23 -d -1 -p cbr -e 210 -c 2 -a 0 -i 128 -k AGT
+ -t 16.827142210 -s 23 -d -1 -p cbr -e 210 -c 2 -a 0 -i 129 -k AGT 
- -t 16.827142210 -s 23 -d -1 -p cbr -e 210 -c 2 -a 0 -i 129 -k AGT
h -t 16.827142210 -s 23 -d -1 -p cbr -e 210 -c 2 -a 0 -i 129 -k AGT
+ -t 16.845808877 -s 23 -d -1 -p cbr -e 210 -c 2 -a 0 -i 130 -k AGT 
- -t 16.845808877 -s 23 -d -1 -p cbr -e 210 -c 2 -a 0 -i 130 -k AGT