s 1.752032759 _1_ AGT  --- 3 0 cbr 210 [0 0 0 0] ------- [1:1 11:1 32 0] [0] 0 0
s 1.763232759 _1_ AGT  --- 3 1 cbr 210 [0 0 0 0] ------- [1:1 11:1 32 0] [1] 0 0
s 1.774432759 _1_ AGT  --- 3 2 cbr 210 [0 0 0 0] ------- [1:1 11:1 32 0] [2] 0 0
s 1.785632759 _1_ AGT  --- 3 3 cbr 210 [0 0 0 0] ------- [1:1 11:1 32 0] [3] 0 0
s 1.796832759 _1_ AGT  --- 3 4 cbr 210 [0 0 0 0] ------- [1:1 11:1 32 0] [4] 0 0
s 1.808032759 _1_ AGT  --- 3 5 cbr 210 [0 0 0 0] ------- [1:1 11:1 32 0] [5] 0 0
s 1.819232759 _1_ AGT  --- 3 6 cbr 210 [0 0 0 0] ------- [1:1 11:1 32 0] [6] 0 0
s 1.830432759 _1_ AGT  --- 3 7 cbr 210 [0 0 0 0] ------- [1:1 11:1 32 0] [7] 0 0
s 1.841632759 _1_ AGT  --- 3 8 cbr 210 [0 0 0 0] ------- [1:1 11:1 32 0] [8] 0 0
s 1.852832759 _1_ AGT  --- 3 9 cbr 210 [0 0 0 0] ------- [1:1 11:1 32 0] [9] 0 0
s 1.864032759 _1_ AGT  --- 3 10 cbr 210 [0 0 0 0] ------- [1:1 11:1 32 0] [10] 0 0
s 1.875232759 _1_ AGT  --- 3 11 cbr 210 [0 0 0 0] ------- [1:1 11:1 32 0] [11] 0 0
s 1.886432759 _1_ AGT  --- 3 12 cbr 210 [0 0 0 0] ------- [1:1 11:1 32 0] [12] 0 0
s 1.897632759 _1_ AGT  --- 3 13 cbr 210 [0 0 0 0] ------- [1:1 11:1 32 0] [13] 0 0
s 1.908832759 _1_ AGT  --- 3 14 cbr 210 [0 0 0 0] ------- [1:1 11:1 32 0] [14] 0 0
s 1.920032759 _1_ AGT  --- 3 15 cbr 210 [0 0 0 0] ------- [1:1 11:1 32 0] [15] 0 0
s 1.931232759 _1_ AGT  --- 3 16 cbr 210 [0 0 0 0] ------- [1:1 11:1 32 0] [16] 0 0
s 1.942432759 _1_ AGT  --- 3 17 cbr 210 [0 0 0 0] ------- [1:1 11:1 32 0] [17] 0 0
s 1.953632759 _1_ AGT  --- 3 18 cbr 210 [0 0 0 0] ------- [1:1 11:1 32 0] [18] 0 0
s 1.964832759 _1_ AGT  --- 3 19 cbr 210 [0 0 0 0] ------- [1:1 11:1 32 0] [19] 0 0
s 1.976032759 _1_ AGT  --- 3 20 cbr 210 [0 0 0 0] ------- [1:1 11:1 32 0] [20] 0 0
s 1.987232759 _1_ AGT  --- 3 21 cbr 210 [0 0 0 0] ------- [1:1 11:1 32 0] [21] 0 0
s 1.998432759 _1_ AGT  --- 3 22 cbr 210 [0 0 0 0] ------- [1:1 11:1 32 0] [22] 0 0
s 2.009632759 _1_ AGT  --- 3 23 cbr 210 [0 0 0 0] ------- [1:1 11:1 32 0] [23] 0 0
s 2.020832759 _1_ AGT  --- 3 24 cbr 210 [0 0 0 0] ------- [1:1 11:1 32 0] [24] 0 0
s 2.032032759 _1_ AGT  --- 3 25 cbr 210 [0 0 0 0] ------- [1:1 11:1 32 0] [25] 0 0
s 2.043232759 _1_ AGT  --- 3 26 cbr 210 [0 0 0 0] ------- [1:1 11:1 32 0] [26] 0 0
s 2.054432759 _1_ AGT  --- 3 27 cbr 210 [0 0 0 0] ------- [1:1 11:1 32 0] [27] 0 0
s 2.065632759 _1_ AGT  --- 3 28 cbr 210 [0 0 0 0] ------- [1:1 11:1 32 0] [28] 0 0
s 2.076832759 _1_ AGT  --- 3 29 cbr 210 [0 0 0 0] ------- [1:1 11:1 32 0] [29] 0 0
s 2.088032759 _1_ AGT  --- 3 30 cbr 210 [0 0 0 0] ------- [1:1 11:1 32 0] [30] 0 0
s 2.099232759 _1_ AGT  --- 3 31 cbr 210 [0 0 0 0] ------- [1:1 11:1 32 0] [31] 0 0
s 2.110432759 _1_ AGT  --- 3 32 cbr 210 [0 0 0 0] ------- [1:1 11:1 32 0] [32] 0 0
s 2.121632759 _1_ AGT  --- 3 33 cbr 210 [0 0 0 0] ------- [1:1 11:1 32 0] [33] 0 0
s 2.132832759 _1_ AGT  --- 3 34 cbr 210 [0 0 0 0] ------- [1:1 11:1 32 0] [34] 0 0
s 2.144032759 _1_ AGT  --- 3 35 cbr 210 [0 0 0 0] ------- [1:1 11:1 32 0] [35] 0 0
s 2.155232759 _1_ AGT  --- 3 36 cbr 210 [0 0 0 0] ------- [1:1 11:1 32 0] [36] 0 0
s 2.166432759 _1_ AGT  --- 3 37 cbr 210 [0 0 0 0] ------- [1:1 11:1 32 0] [37] 0 0
s 2.177632759 _1_ AGT  --- 3 38 cbr 210 [0 0 0 0] ------- [1:1 11:1 32 0] [38] 0 0
s 2.188832759 _1_ AGT  --- 3 39 cbr 210 [0 0 0 0] ------- [1:1 11:1 32 0] [39] 0 0
s 2.200032759 _1_ AGT  --- 3 40 cbr 210 [0 0 0 0] ------- [1:1 11:1 32 0] [40] 0 0
s 2.211232759 _1_ AGT  --- 3 41 cbr 210 [0 0 0 0] ------- [1:1 11:1 32 0] [41] 0 0
s 2.222432759 _1_ AGT  --- 3 42 cbr 210 [0 0 0 0] ------- [1:1 11:1 32 0] [42] 0 0
s 2.233632759 _1_ AGT  --- 3 43 cbr 210 [0 0 0 0] ------- [1:1 11:1 32 0] [43] 0 0
s 2.244832759 _1_ AGT  --- 3 44 cbr 210 [0 0 0 0] ------- [1:1 11:1 32 0] [44] 0 0
s 2.256032759 _1_ AGT  --- 3 45 cbr 210 [0 0 0 0] ------- [1:1 11:1 32 0] [45] 0 0
s 2.267232759 _1_ AGT  --- 3 46 cbr 210 [0 0 0 0] ------- [1:1 11:1 32 0] [46] 0 0
s 2.278432759 _1_ AGT  --- 3 47 cbr 210 [0 0 0 0] ------- [1:1 11:1 32 0] [47] 0 0
s 2.289632759 _1_ AGT  --- 3 48 cbr 210 [0 0 0 0] ------- [1:1 11:1 32 0] [48] 0 0
s 2.300832759 _1_ AGT  --- 3 49 cbr 210 [0 0 0 0] ------- [1:1 11:1 32 0] [49] 0 0
s 2.312032759 _1_ AGT  --- 3 50 cbr 210 [0 0 0 0] ------- [1:1 11:1 32 0] [50] 0 0
s 2.323232759 _1_ AGT  --- 3 51 cbr 210 [0 0 0 0] ------- [1:1 11:1 32 0] [51] 0 0
s 2.334432759 _1_ AGT  --- 3 52 cbr 210 [0 0 0 0] ------- [1:1 11:1 32 0] [52] 0 0
s 2.345632759 _1_ AGT  --- 3 53 cbr 210 [0 0 0 0] ------- [1:1 11:1 32 0] [53] 0 0
s 2.356832759 _1_ AGT  --- 3 54 cbr 210 [0 0 0 0] ------- [1:1 11:1 32 0] [54] 0 0
s 2.368032759 _1_ AGT  --- 3 55 cbr 210 [0 0 0 0] ------- [1:1 11:1 32 0] [55] 0 0
s 2.379232759 _1_ AGT  --- 3 56 cbr 210 [0 0 0 0] ------- [1:1 11:1 32 0] [56] 0 0
s 2.390432759 _1_ AGT  --- 3 57 cbr 210 [0 0 0 0] ------- [1:1 11:1 32 0] [57] 0 0
s 2.401632759 _1_ AGT  --- 3 58 cbr 210 [0 0 0 0] ------- [1:1 11:1 32 0] [58] 0 0
s 2.412832759 _1_ AGT  --- 3 59 cbr 210 [0 0 0 0] ------- [1:1 11:1 32 0] [59] 0 0
s 2.424032759 _1_ AGT  --- 3 60 cbr 210 [0 0 0 0] ------- [1:1 11:1 32 0] [60] 0 0
s 2.435232759 _1_ AGT  --- 3 61 cbr 210 [0 0 0 0] ------- [1:1 11:1 32 0] [61] 0 0
s 2.446432759 _1_ AGT  --- 3 62 cbr 210 [0 0 0 0] ------- [1:1 11:1 32 0] [62] 0 0
s 2.457632759 _1_ AGT  --- 3 63 cbr 210 [0 0 0 0] ------- [1:1 11:1 32 0] [63] 0 0
s 2.468832759 _1_ AGT  --- 3 64 cbr 210 [0 0 0 0] ------- [1:1 11:1 32 0] [64] 0 0
D 2.468832759 _1_ RTR  IFQ 3 0 cbr 230 [0 0 0 0] ------- [1:1 11:1 30 0] [0] 0 0
s 2.480032759 _1_ AGT  --- 3 65 cbr 210 [0 0 0 0] ------- [1:1 11:1 32 0] [65] 0 0
D 2.480032759 _1_ RTR  IFQ 3 1 cbr 230 [0 0 0 0] ------- [1:1 11:1 30 0] [1] 0 0
s 2.491232759 _1_ AGT  --- 3 66 cbr 210 [0 0 0 0] ------- [1:1 11:1 32 0] [66] 0 0
D 2.491232759 _1_ RTR  IFQ 3 2 cbr 230 [0 0 0 0] ------- [1:1 11:1 30 0] [2] 0 0
s 2.502432759 _1_ AGT  --- 3 67 cbr 210 [0 0 0 0] ------- [1:1 11:1 32 0] [67] 0 0
D 2.502432759 _1_ RTR  IFQ 3 3 cbr 230 [0 0 0 0] ------- [1:1 11:1 30 0] [3] 0 0
s 2.513632759 _1_ AGT  --- 3 68 cbr 210 [0 0 0 0] ------- [1:1 11:1 32 0] [68] 0 0
D 2.513632759 _1_ RTR  IFQ 3 4 cbr 230 [0 0 0 0] ------- [1:1 11:1 30 0] [4] 0 0
s 2.524832759 _1_ AGT  --- 3 69 cbr 210 [0 0 0 0] ------- [1:1 11:1 32 0] [69] 0 0
D 2.524832759 _1_ RTR  IFQ 3 5 cbr 230 [0 0 0 0] ------- [1:1 11:1 30 0] [5] 0 0
s 2.536032759 _1_ AGT  --- 3 70 cbr 210 [0 0 0 0] ------- [1:1 11:1 32 0] [70] 0 0
D 2.536032759 _1_ RTR  IFQ 3 6 cbr 230 [0 0 0 0] ------- [1:1 11:1 30 0] [6] 0 0
s 2.547232759 _1_ AGT  --- 3 71 cbr 210 [0 0 0 0] ------- [1:1 11:1 32 0] [71] 0 0
D 2.547232759 _1_ RTR  IFQ 3 7 cbr 230 [0 0 0 0] ------- [1:1 11:1 30 0] [7] 0 0
s 2.558432759 _1_ AGT  --- 3 72 cbr 210 [0 0 0 0] ------- [1:1 11:1 32 0] [72] 0 0
D 2.558432759 _1_ RTR  IFQ 3 8 cbr 230 [0 0 0 0] ------- [1:1 11:1 30 0] [8] 0 0
s 2.569632759 _1_ AGT  --- 3 73 cbr 210 [0 0 0 0] ------- [1:1 11:1 32 0] [73] 0 0
D 2.569632759 _1_ RTR  IFQ 3 9 cbr 230 [0 0 0 0] ------- [1:1 11:1 30 0] [9] 0 0
s 2.580832759 _1_ AGT  --- 3 74 cbr 210 [0 0 0 0] ------- [1:1 11:1 32 0] [74] 0 0
D 2.580832759 _1_ RTR  IFQ 3 10 cbr 230 [0 0 0 0] ------- [1:1 11:1 30 0] [10] 0 0
s 2.592032759 _1_ AGT  --- 3 75 cbr 210 [0 0 0 0] ------- [1:1 11:1 32 0] [75] 0 0
D 2.592032759 _1_ RTR  IFQ 3 11 cbr 230 [0 0 0 0] ------- [1:1 11:1 30 0] [11] 0 0
s 2.603232759 _1_ AGT  --- 3 76 cbr 210 [0 0 0 0] ------- [1:1 11:1 32 0] [76] 0 0
D 2.603232759 _1_ RTR  IFQ 3 12 cbr 230 [0 0 0 0] ------- [1:1 11:1 30 0] [12] 0 0
s 2.614432759 _1_ AGT  --- 3 77 cbr 210 [0 0 0 0] ------- [1:1 11:1 32 0] [77] 0 0
D 2.614432759 _1_ RTR  IFQ 3 13 cbr 230 [0 0 0 0] ------- [1:1 11:1 30 0] [13] 0 0
s 2.625632759 _1_ AGT  --- 3 78 cbr 210 [0 0 0 0] ------- [1:1 11:1 32 0] [78] 0 0
D 2.625632759 _1_ RTR  IFQ 3 14 cbr 230 [0 0 0 0] ------- [1:1 11:1 30 0] [14] 0 0
s 2.636832759 _1_ AGT  --- 3 79 cbr 210 [0 0 0 0] ------- [1:1 11:1 32 0] [79] 0 0
D 2.636832759 _1_ RTR  IFQ 3 15 cbr 230 [0 0 0 0] ------- [1:1 11:1 30 0] [15] 0 0
s 2.648032759 _1_ AGT  --- 3 80 cbr 210 [0 0 0 0] ------- [1:1 11:1 32 0] [80] 0 0
D 2.648032759 _1_ RTR  IFQ 3 16 cbr 230 [0 0 0 0] ------- [1:1 11:1 30 0] [16] 0 0
s 2.659232759 _1_ AGT  --- 3 81 cbr 210 [0 0 0 0] ------- [1:1 11:1 32 0] [81] 0 0
D 2.659232759 _1_ RTR  IFQ 3 17 cbr 230 [0 0 0 0] ------- [1:1 11:1 30 0] [17] 0 0
s 2.670432759 _1_ AGT  --- 3 82 cbr 210 [0 0 0 0] ------- [1:1 11:1 32 0] [82] 0 0
D 2.670432759 _1_ RTR  IFQ 3 18 cbr 230 [0 0 0 0] ------- [1:1 11:1 30 0] [18] 0 0
s 2.681632759 _1_ AGT  --- 3 83 cbr 210 [0 0 0 0] ------- [1:1 11:1 32 0] [83] 0 0
D 2.681632759 _1_ RTR  IFQ 3 19 cbr 230 [0 0 0 0] ------- [1:1 11:1 30 0] [19] 0 0
s 2.692832759 _1_ AGT  --- 3 84 cbr 210 [0 0 0 0] ------- [1:1 11:1 32 0] [84] 0 0
D 2.692832759 _1_ RTR  IFQ 3 20 cbr 230 [0 0 0 0] ------- [1:1 11:1 30 0] [20] 0 0
s 2.704032759 _1_ AGT  --- 3 85 cbr 210 [0 0 0 0] ------- [1:1 11:1 32 0] [85] 0 0
D 2.704032759 _1_ RTR  IFQ 3 21 cbr 230 [0 0 0 0] ------- [1:1 11:1 30 0] [21] 0 0
s 2.715232759 _1_ AGT  --- 3 86 cbr 210 [0 0 0 0] ------- [1:1 11:1 32 0] [86] 0 0
D 2.715232759 _1_ RTR  IFQ 3 22 cbr 230 [0 0 0 0] ------- [1:1 11:1 30 0] [22] 0 0
s 2.726432759 _1_ AGT  --- 3 87 cbr 210 [0 0 0 0] ------- [1:1 11:1 32 0] [87] 0 0
D 2.726432759 _1_ RTR  IFQ 3 23 cbr 230 [0 0 0 0] ------- [1:1 11:1 30 0] [23] 0 0
s 2.737632759 _1_ AGT  --- 3 88 cbr 210 [0 0 0 0] ------- [1:1 11:1 32 0] [88] 0 0
D 2.737632759 _1_ RTR  IFQ 3 24 cbr 230 [0 0 0 0] ------- [1:1 11:1 30 0] [24] 0 0
s 2.748832759 _1_ AGT  --- 3 89 cbr 210 [0 0 0 0] ------- [1:1 11:1 32 0] [89] 0 0
D 2.748832759 _1_ RTR  IFQ 3 25 cbr 230 [0 0 0 0] ------- [1:1 11:1 30 0] [25] 0 0
s 2.760032759 _1_ AGT  --- 3 90 cbr 210 [0 0 0 0] ------- [1:1 11:1 32 0] [90] 0 0
D 2.760032759 _1_ RTR  IFQ 3 26 cbr 230 [0 0 0 0] ------- [1:1 11:1 30 0] [26] 0 0
s 2.771232759 _1_ AGT  --- 3 91 cbr 210 [0 0 0 0] ------- [1:1 11:1 32 0] [91] 0 0
D 2.771232759 _1_ RTR  IFQ 3 27 cbr 230 [0 0 0 0] ------- [1:1 11:1 30 0] [27] 0 0
s 2.782432759 _1_ AGT  --- 3 92 cbr 210 [0 0 0 0] ------- [1:1 11:1 32 0] [92] 0 0
D 2.782432759 _1_ RTR  IFQ 3 28 cbr 230 [0 0 0 0] ------- [1:1 11:1 30 0] [28] 0 0
s 2.793632759 _1_ AGT  --- 3 93 cbr 210 [0 0 0 0] ------- [1:1 11:1 32 0] [93] 0 0
D 2.793632759 _1_ RTR  IFQ 3 29 cbr 230 [0 0 0 0] ------- [1:1 11:1 30 0] [29] 0 0
s 2.804832759 _1_ AGT  --- 3 94 cbr 210 [0 0 0 0] ------- [1:1 11:1 32 0] [94] 0 0
D 2.804832759 _1_ RTR  IFQ 3 30 cbr 230 [0 0 0 0] ------- [1:1 11:1 30 0] [30] 0 0
s 2.816032759 _1_ AGT  --- 3 95 cbr 210 [0 0 0 0] ------- [1:1 11:1 32 0] [95] 0 0
D 2.816032759 _1_ RTR  IFQ 3 31 cbr 230 [0 0 0 0] ------- [1:1 11:1 30 0] [31] 0 0
s 2.827232759 _1_ AGT  --- 3 96 cbr 210 [0 0 0 0] ------- [1:1 11:1 32 0] [96] 0 0
D 2.827232759 _1_ RTR  IFQ 3 32 cbr 230 [0 0 0 0] ------- [1:1 11:1 30 0] [32] 0 0
s 2.838432759 _1_ AGT  --- 3 97 cbr 210 [0 0 0 0] ------- [1:1 11:1 32 0] [97] 0 0
D 2.838432759 _1_ RTR  IFQ 3 33 cbr 230 [0 0 0 0] ------- [1:1 11:1 30 0] [33] 0 0
s 2.849632759 _1_ AGT  --- 3 98 cbr 210 [0 0 0 0] ------- [1:1 11:1 32 0] [98] 0 0
D 2.849632759 _1_ RTR  IFQ 3 34 cbr 230 [0 0 0 0] ------- [1:1 11:1 30 0] [34] 0 0
s 2.860832759 _1_ AGT  --- 3 99 cbr 210 [0 0 0 0] ------- [1:1 11:1 32 0] [99] 0 0
D 2.860832759 _1_ RTR  IFQ 3 35 cbr 230 [0 0 0 0] ------- [1:1 11:1 30 0] [35] 0 0
s 2.872032759 _1_ AGT  --- 3 100 cbr 210 [0 0 0 0] ------- [1:1 11:1 32 0] [100] 0 0
D 2.872032759 _1_ RTR  IFQ 3 36 cbr 230 [0 0 0 0] ------- [1:1 11:1 30 0] [36] 0 0
s 2.883232759 _1_ AGT  --- 3 101 cbr 210 [0 0 0 0] ------- [1:1 11:1 32 0] [101] 0 0
D 2.883232759 _1_ RTR  IFQ 3 37 cbr 230 [0 0 0 0] ------- [1:1 11:1 30 0] [37] 0 0
s 2.894432759 _1_ AGT  --- 3 102 cbr 210 [0 0 0 0] ------- [1:1 11:1 32 0] [102] 0 0
D 2.894432759 _1_ RTR  IFQ 3 38 cbr 230 [0 0 0 0] ------- [1:1 11:1 30 0] [38] 0 0
s 2.905632759 _1_ AGT  --- 3 103 cbr 210 [0 0 0 0] ------- [1:1 11:1 32 0] [103] 0 0
D 2.905632759 _1_ RTR  IFQ 3 39 cbr 230 [0 0 0 0] ------- [1:1 11:1 30 0] [39] 0 0
s 2.916832759 _1_ AGT  --- 3 104 cbr 210 [0 0 0 0] ------- [1:1 11:1 32 0] [104] 0 0
D 2.916832759 _1_ RTR  IFQ 3 40 cbr 230 [0 0 0 0] ------- [1:1 11:1 30 0] [40] 0 0
s 2.928032759 _1_ AGT  --- 3 105 cbr 210 [0 0 0 0] ------- [1:1 11:1 32 0] [105] 0 0
D 2.928032759 _1_ RTR  IFQ 3 41 cbr 230 [0 0 0 0] ------- [1:1 11:1 30 0] [41] 0 0
s 2.939232759 _1_ AGT  --- 3 106 cbr 210 [0 0 0 0] ------- [1:1 11:1 32 0] [106] 0 0
D 2.939232759 _1_ RTR  IFQ 3 42 cbr 230 [0 0 0 0] ------- [1:1 11:1 30 0] [42] 0 0
s 2.950432759 _1_ AGT  --- 3 107 cbr 210 [0 0 0 0] ------- [1:1 11:1 32 0] [107] 0 0
D 2.950432759 _1_ RTR  IFQ 3 43 cbr 230 [0 0 0 0] ------- [1:1 11:1 30 0] [43] 0 0
s 2.961632759 _1_ AGT  --- 3 108 cbr 210 [0 0 0 0] ------- [1:1 11:1 32 0] [108] 0 0
D 2.961632759 _1_ RTR  IFQ 3 44 cbr 230 [0 0 0 0] ------- [1:1 11:1 30 0] [44] 0 0
s 2.972832759 _1_ AGT  --- 3 109 cbr 210 [0 0 0 0] ------- [1:1 11:1 32 0] [109] 0 0
D 2.972832759 _1_ RTR  IFQ 3 45 cbr 230 [0 0 0 0] ------- [1:1 11:1 30 0] [45] 0 0
s 2.984032759 _1_ AGT  --- 3 110 cbr 210 [0 0 0 0] ------- [1:1 11:1 32 0] [110] 0 0
D 2.984032759 _1_ RTR  IFQ 3 46 cbr 230 [0 0 0 0] ------- [1:1 11:1 30 0] [46] 0 0
s 2.995232759 _1_ AGT  --- 3 111 cbr 210 [0 0 0 0] ------- [1:1 11:1 32 0] [111] 0 0
D 2.995232759 _1_ RTR  IFQ 3 47 cbr 230 [0 0 0 0] ------- [1:1 11:1 30 0] [47] 0 0
s 3.006432759 _1_ AGT  --- 3 112 cbr 210 [0 0 0 0] ------- [1:1 11:1 32 0] [112] 0 0
D 3.006432759 _1_ RTR  IFQ 3 48 cbr 230 [0 0 0 0] ------- [1:1 11:1 30 0] [48] 0 0
s 3.017632759 _1_ AGT  --- 3 113 cbr 210 [0 0 0 0] ------- [1:1 11:1 32 0] [113] 0 0
D 3.017632759 _1_ RTR  IFQ 3 49 cbr 230 [0 0 0 0] ------- [1:1 11:1 30 0] [49] 0 0
s 3.028832759 _1_ AGT  --- 3 114 cbr 210 [0 0 0 0] ------- [1:1 11:1 32 0] [114] 0 0
D 3.028832759 _1_ RTR  IFQ 3 50 cbr 230 [0 0 0 0] ------- [1:1 11:1 30 0] [50] 0 0
s 3.040032759 _1_ AGT  --- 3 115 cbr 210 [0 0 0 0] ------- [1:1 11:1 32 0] [115] 0 0
D 3.040032759 _1_ RTR  IFQ 3 51 cbr 230 [0 0 0 0] ------- [1:1 11:1 30 0] [51] 0 0
s 3.051232759 _1_ AGT  --- 3 116 cbr 210 [0 0 0 0] ------- [1:1 11:1 32 0] [116] 0 0
D 3.051232759 _1_ RTR  IFQ 3 52 cbr 230 [0 0 0 0] ------- [1:1 11:1 30 0] [52] 0 0
s 3.062432759 _1_ AGT  --- 3 117 cbr 210 [0 0 0 0] ------- [1:1 11:1 32 0] [117] 0 0
D 3.062432759 _1_ RTR  IFQ 3 53 cbr 230 [0 0 0 0] ------- [1:1 11:1 30 0] [53] 0 0
s 3.073632759 _1_ AGT  --- 3 118 cbr 210 [0 0 0 0] ------- [1:1 11:1 32 0] [118] 0 0
D 3.073632759 _1_ RTR  IFQ 3 54 cbr 230 [0 0 0 0] ------- [1:1 11:1 30 0] [54] 0 0
s 3.084832759 _1_ AGT  --- 3 119 cbr 210 [0 0 0 0] ------- [1:1 11:1 32 0] [119] 0 0
D 3.084832759 _1_ RTR  IFQ 3 55 cbr 230 [0 0 0 0] ------- [1:1 11:1 30 0] [55] 0 0
s 3.096032759 _1_ AGT  --- 3 120 cbr 210 [0 0 0 0] ------- [1:1 11:1 32 0] [120] 0 0
D 3.096032759 _1_ RTR  IFQ 3 56 cbr 230 [0 0 0 0] ------- [1:1 11:1 30 0] [56] 0 0
s 3.107232759 _1_ AGT  --- 3 121 cbr 210 [0 0 0 0] ------- [1:1 11:1 32 0] [121] 0 0
D 3.107232759 _1_ RTR  IFQ 3 57 cbr 230 [0 0 0 0] ------- [1:1 11:1 30 0] [57] 0 0
s 3.118432759 _1_ AGT  --- 3 122 cbr 210 [0 0 0 0] ------- [1:1 11:1 32 0] [122] 0 0
D 3.118432759 _1_ RTR  IFQ 3 58 cbr 230 [0 0 0 0] ------- [1:1 11:1 30 0] [58] 0 0
s 3.129632759 _1_ AGT  --- 3 123 cbr 210 [0 0 0 0] ------- [1:1 11:1 32 0] [123] 0 0
D 3.129632759 _1_ RTR  IFQ 3 59 cbr 230 [0 0 0 0] ------- [1:1 11:1 30 0] [59] 0 0
s 3.140832759 _1_ AGT  --- 3 124 cbr 210 [0 0 0 0] ------- [1:1 11:1 32 0] [124] 0 0
D 3.140832759 _1_ RTR  IFQ 3 60 cbr 230 [0 0 0 0] ------- [1:1 11:1 30 0] [60] 0 0
s 3.152032759 _1_ AGT  --- 3 125 cbr 210 [0 0 0 0] ------- [1:1 11:1 32 0] [125] 0 0
D 3.152032759 _1_ RTR  IFQ 3 61 cbr 230 [0 0 0 0] ------- [1:1 11:1 30 0] [61] 0 0
s 3.163232759 _1_ AGT  --- 3 126 cbr 210 [0 0 0 0] ------- [1:1 11:1 32 0] [126] 0 0
D 3.163232759 _1_ RTR  IFQ 3 62 cbr 230 [0 0 0 0] ------- [1:1 11:1 30 0] [62] 0 0
s 3.174432759 _1_ AGT  --- 3 127 cbr 210 [0 0 0 0] ------- [1:1 11:1 32 0] [127] 0 0
D 3.174432759 _1_ RTR  IFQ 3 63 cbr 230 [0 0 0 0] ------- [1:1 11:1 30 0] [63] 0 0
s 3.185632759 _1_ AGT  --- 3 128 cbr 210 [0 0 0 0] ------- [1:1 11:1 32 0] [128] 0 0
D 3.185632759 _1_ RTR  IFQ 3 64 cbr 230 [0 0 0 0] ------- [1:1 11:1 30 0] [64] 0 0
s 3.196832759 _1_ AGT  --- 3 129 cbr 210 [0 0 0 0] ------- [1:1 11:1 32 0] [129] 0 0
D 3.196832759 _1_ RTR  IFQ 3 65 cbr 230 [0 0 0 0] ------- [1:1 11:1 30 0] [65] 0 0
s 3.208032759 _1_ AGT  --- 3 130 cbr 210 [0 0 0 0] ------- [1:1 11:1 32 0] [130] 0 0
D 3.208032759 _1_ RTR  IFQ 3 66 cbr 230 [0 0 0 0] ------- [1:1 11:1 30 0] [66] 0 0
s 3.219232759 _1_ AGT  --- 3 131 cbr 210 [0 0 0 0] ------- [1:1 11:1 32 0] [131] 0 0
D 3.219232759 _1_ RTR  IFQ 3 67 cbr 230 [0 0 0 0] ------- [1:1 11:1 30 0] [67] 0 0
s 3.230432759 _1_ AGT  --- 3 132 cbr 210 [0 0 0 0] ------- [1:1 11:1 32 0] [132] 0 0
D 3.230432759 _1_ RTR  IFQ 3 68 cbr 230 [0 0 0 0] ------- [1:1 11:1 30 0] [68] 0 0
s 3.241632759 _1_ AGT  --- 3 133 cbr 210 [0 0 0 0] ------- [1:1 11:1 32 0] [133] 0 0
D 3.241632759 _1_ RTR  IFQ 3 69 cbr 230 [0 0 0 0] ------- [1:1 11:1 30 0] [69] 0 0
s 3.252832759 _1_ AGT  --- 3 134 cbr 210 [0 0 0 0] ------- [1:1 11:1 32 0] [134] 0 0
D 3.252832759 _1_ RTR  IFQ 3 70 cbr 230 [0 0 0 0] ------- [1:1 11:1 30 0] [70] 0 0
s 3.264032759 _1_ AGT  --- 3 135 cbr 210 [0 0 0 0] ------- [1:1 11:1 32 0] [135] 0 0
s 3.275232759 _1_ AGT  --- 3 136 cbr 210 [0 0 0 0] ------- [1:1 11:1 32 0] [136] 0 0
r 3.277153667 _11_ AGT  --- 3 71 cbr 230 [5 b 6 0] ------- [1:1 11:1 29 11] [71] 2 0
r 3.283153667 _11_ AGT  --- 3 72 cbr 230 [5 b 6 0] ------- [1:1 11:1 29 11] [72] 2 0
s 3.286432759 _1_ AGT  --- 3 137 cbr 210 [0 0 0 0] ------- [1:1 11:1 32 0] [137] 0 0
r 3.289153667 _11_ AGT  --- 3 135 cbr 230 [5 b 6 0] ------- [1:1 11:1 29 11] [135] 2 0
s 3.297632759 _1_ AGT  --- 3 138 cbr 210 [0 0 0 0] ------- [1:1 11:1 32 0] [138] 0 0
s 3.308832759 _1_ AGT  --- 3 139 cbr 210 [0 0 0 0] ------- [1:1 11:1 32 0] [139] 0 0
s 3.320032759 _1_ AGT  --- 3 140 cbr 210 [0 0 0 0] ------- [1:1 11:1 32 0] [140] 0 0
r 3.331153667 _11_ AGT  --- 3 73 cbr 230 [5 b 6 0] ------- [1:1 11:1 29 11] [73] 2 0
s 3.331232759 _1_ AGT  --- 3 141 cbr 210 [0 0 0 0] ------- [1:1 11:1 32 0] [141] 0 0
r 3.337153667 _11_ AGT  --- 3 136 cbr 230 [5 b 6 0] ------- [1:1 11:1 29 11] [136] 2 0
s 3.342432759 _1_ AGT  --- 3 142 cbr 210 [0 0 0 0] ------- [1:1 11:1 32 0] [142] 0 0
r 3.343153667 _11_ AGT  --- 3 74 cbr 230 [5 b 6 0] ------- [1:1 11:1 29 11] [74] 2 0
s 3.353632759 _1_ AGT  --- 3 143 cbr 210 [0 0 0 0] ------- [1:1 11:1 32 0] [143] 0 0
s 3.364832759 _1_ AGT  --- 3 144 cbr 210 [0 0 0 0] ------- [1:1 11:1 32 0] [144] 0 0
s 3.376032759 _1_ AGT  --- 3 145 cbr 210 [0 0 0 0] ------- [1:1 11:1 32 0] [145] 0 0
r 3.385153667 _11_ AGT  --- 3 137 cbr 230 [5 b 6 0] ------- [1:1 11:1 29 11] [137] 2 0
s 3.387232759 _1_ AGT  --- 3 146 cbr 210 [0 0 0 0] ------- [1:1 11:1 32 0] [146] 0 0
r 3.391153667 _11_ AGT  --- 3 75 cbr 230 [5 b 6 0] ------- [1:1 11:1 29 11] [75] 2 0
r 3.397153667 _11_ AGT  --- 3 138 cbr 230 [5 b 6 0] ------- [1:1 11:1 29 11] [138] 2 0
s 3.398432759 _1_ AGT  --- 3 147 cbr 210 [0 0 0 0] ------- [1:1 11:1 32 0] [147] 0 0
s 3.409632759 _1_ AGT  --- 3 148 cbr 210 [0 0 0 0] ------- [1:1 11:1 32 0] [148] 0 0
s 3.420832759 _1_ AGT  --- 3 149 cbr 210 [0 0 0 0] ------- [1:1 11:1 32 0] [149] 0 0
s 3.432032759 _1_ AGT  --- 3 150 cbr 210 [0 0 0 0] ------- [1:1 11:1 32 0] [150] 0 0
r 3.439153667 _11_ AGT  --- 3 76 cbr 230 [5 b 6 0] ------- [1:1 11:1 29 11] [76] 2 0
s 3.443232759 _1_ AGT  --- 3 151 cbr 210 [0 0 0 0] ------- [1:1 11:1 32 0] [151] 0 0
r 3.445153667 _11_ AGT  --- 3 139 cbr 230 [5 b 6 0] ------- [1:1 11:1 29 11] [139] 2 0
r 3.451153667 _11_ AGT  --- 3 77 cbr 230 [5 b 6 0] ------- [1:1 11:1 29 11] [77] 2 0
s 3.454432759 _1_ AGT  --- 3 152 cbr 210 [0 0 0 0] ------- [1:1 11:1 32 0] [152] 0 0
s 3.465632759 _1_ AGT  --- 3 153 cbr 210 [0 0 0 0] ------- [1:1 11:1 32 0] [153] 0 0
s 3.476832759 _1_ AGT  --- 3 154 cbr 210 [0 0 0 0] ------- [1:1 11:1 32 0] [154] 0 0
s 3.488032759 _1_ AGT  --- 3 155 cbr 210 [0 0 0 0] ------- [1:1 11:1 32 0] [155] 0 0
r 3.493153667 _11_ AGT  --- 3 140 cbr 230 [5 b 6 0] ------- [1:1 11:1 29 11] [140] 2 0
r 3.499153667 _11_ AGT  --- 3 78 cbr 230 [5 b 6 0] ------- [1:1 11:1 29 11] [78] 2 0
s 3.499232759 _1_ AGT  --- 3 156 cbr 210 [0 0 0 0] ------- [1:1 11:1 32 0] [156] 0 0
r 3.505153667 _11_ AGT  --- 3 141 cbr 230 [5 b 6 0] ------- [1:1 11:1 29 11] [141] 2 0
s 3.510432759 _1_ AGT  --- 3 157 cbr 210 [0 0 0 0] ------- [1:1 11:1 32 0] [157] 0 0
s 3.521632759 _1_ AGT  --- 3 158 cbr 210 [0 0 0 0] ------- [1:1 11:1 32 0] [158] 0 0
s 3.532832759 _1_ AGT  --- 3 159 cbr 210 [0 0 0 0] ------- [1:1 11:1 32 0] [159] 0 0
s 3.544032759 _1_ AGT  --- 3 160 cbr 210 [0 0 0 0] ------- [1:1 11:1 32 0] [160] 0 0
r 3.547153667 _11_ AGT  --- 3 79 cbr 230 [5 b 6 0] ------- [1:1 11:1 29 11] [79] 2 0
r 3.553153667 _11_ AGT  --- 3 142 cbr 230 [5 b 6 0] ------- [1:1 11:1 29 11] [142] 2 0
s 3.555232759 _1_ AGT  --- 3 161 cbr 210 [0 0 0 0] ------- [1:1 11:1 32 0] [161] 0 0
r 3.559153667 _11_ AGT  --- 3 80 cbr 230 [5 b 6 0] ------- [1:1 11:1 29 11] [80] 2 0
s 3.566432759 _1_ AGT  --- 3 162 cbr 210 [0 0 0 0] ------- [1:1 11:1 32 0] [162] 0 0
s 3.577632759 _1_ AGT  --- 3 163 cbr 210 [0 0 0 0] ------- [1:1 11:1 32 0] [163] 0 0
s 3.588832759 _1_ AGT  --- 3 164 cbr 210 [0 0 0 0] ------- [1:1 11:1 32 0] [164] 0 0
s 3.600032759 _1_ AGT  --- 3 165 cbr 210 [0 0 0 0] ------- [1:1 11:1 32 0] [165] 0 0
r 3.601153667 _11_ AGT  --- 3 81 cbr 230 [5 b 6 0] ------- [1:1 11:1 29 11] [81] 2 0
r 3.607153667 _11_ AGT  --- 3 143 cbr 230 [5 b 6 0] ------- [1:1 11:1 29 11] [143] 2 0
s 3.611232759 _1_ AGT  --- 3 166 cbr 210 [0 0 0 0] ------- [1:1 11:1 32 0] [166] 0 0
r 3.613153667 _11_ AGT  --- 3 82 cbr 230 [5 b 6 0] ------- [1:1 11:1 29 11] [82] 2 0
s 3.622432759 _1_ AGT  --- 3 167 cbr 210 [0 0 0 0] ------- [1:1 11:1 32 0] [167] 0 0
s 3.633632759 _1_ AGT  --- 3 168 cbr 210 [0 0 0 0] ------- [1:1 11:1 32 0] [168] 0 0
s 3.644832759 _1_ AGT  --- 3 169 cbr 210 [0 0 0 0] ------- [1:1 11:1 32 0] [169] 0 0
r 3.655153667 _11_ AGT  --- 3 144 cbr 230 [5 b 6 0] ------- [1:1 11:1 29 11] [144] 2 0
s 3.656032759 _1_ AGT  --- 3 170 cbr 210 [0 0 0 0] ------- [1:1 11:1 32 0] [170] 0 0
r 3.661153667 _11_ AGT  --- 3 83 cbr 230 [5 b 6 0] ------- [1:1 11:1 29 11] [83] 2 0
r 3.667153667 _11_ AGT  --- 3 145 cbr 230 [5 b 6 0] ------- [1:1 11:1 29 11] [145] 2 0
s 3.667232759 _1_ AGT  --- 3 171 cbr 210 [0 0 0 0] ------- [1:1 11:1 32 0] [171] 0 0
s 3.678432759 _1_ AGT  --- 3 172 cbr 210 [0 0 0 0] ------- [1:1 11:1 32 0] [172] 0 0
s 3.689632759 _1_ AGT  --- 3 173 cbr 210 [0 0 0 0] ------- [1:1 11:1 32 0] [173] 0 0
s 3.700832759 _1_ AGT  --- 3 174 cbr 210 [0 0 0 0] ------- [1:1 11:1 32 0] [174] 0 0
r 3.709153667 _11_ AGT  --- 3 84 cbr 230 [5 b 6 0] ------- [1:1 11:1 29 11] [84] 2 0
s 3.712032759 _1_ AGT  --- 3 175 cbr 210 [0 0 0 0] ------- [1:1 11:1 32 0] [175] 0 0
r 3.715153667 _11_ AGT  --- 3 146 cbr 230 [5 b 6 0] ------- [1:1 11:1 29 11] [146] 2 0
r 3.721153667 _11_ AGT  --- 3 85 cbr 230 [5 b 6 0] ------- [1:1 11:1 29 11] [85] 2 0
s 3.723232759 _1_ AGT  --- 3 176 cbr 210 [0 0 0 0] ------- [1:1 11:1 32 0] [176] 0 0
s 3.734432759 _1_ AGT  --- 3 177 cbr 210 [0 0 0 0] ------- [1:1 11:1 32 0] [177] 0 0
s 3.745632759 _1_ AGT  --- 3 178 cbr 210 [0 0 0 0] ------- [1:1 11:1 32 0] [178] 0 0
s 3.756832759 _1_ AGT  --- 3 179 cbr 210 [0 0 0 0] ------- [1:1 11:1 32 0] [179] 0 0
r 3.763153667 _11_ AGT  --- 3 147 cbr 230 [5 b 6 0] ------- [1:1 11:1 29 11] [147] 2 0
s 3.768032759 _1_ AGT  --- 3 180 cbr 210 [0 0 0 0] ------- [1:1 11:1 32 0] [180] 0 0
r 3.769153667 _11_ AGT  --- 3 86 cbr 230 [5 b 6 0] ------- [1:1 11:1 29 11] [86] 2 0
r 3.775153667 _11_ AGT  --- 3 148 cbr 230 [5 b 6 0] ------- [1:1 11:1 29 11] [148] 2 0
s 3.779232759 _1_ AGT  --- 3 181 cbr 210 [0 0 0 0] ------- [1:1 11:1 32 0] [181] 0 0
s 3.790432759 _1_ AGT  --- 3 182 cbr 210 [0 0 0 0] ------- [1:1 11:1 32 0] [182] 0 0
s 3.801632759 _1_ AGT  --- 3 183 cbr 210 [0 0 0 0] ------- [1:1 11:1 32 0] [183] 0 0
s 3.812832759 _1_ AGT  --- 3 184 cbr 210 [0 0 0 0] ------- [1:1 11:1 32 0] [184] 0 0
r 3.817153667 _11_ AGT  --- 3 87 cbr 230 [5 b 6 0] ------- [1:1 11:1 29 11] [87] 2 0
s 3.824032759 _1_ AGT  --- 3 185 cbr 210 [0 0 0 0] ------- [1:1 11:1 32 0] [185] 0 0
s 3.835232759 _1_ AGT  --- 3 186 cbr 210 [0 0 0 0] ------- [1:1 11:1 32 0] [186] 0 0
s 3.846432759 _1_ AGT  --- 3 187 cbr 210 [0 0 0 0] ------- [1:1 11:1 32 0] [187] 0 0
s 3.857632759 _1_ AGT  --- 3 188 cbr 210 [0 0 0 0] ------- [1:1 11:1 32 0] [188] 0 0
s 3.868832759 _1_ AGT  --- 3 189 cbr 210 [0 0 0 0] ------- [1:1 11:1 32 0] [189] 0 0
r 3.871153667 _11_ AGT  --- 3 149 cbr 230 [5 b 6 0] ------- [1:1 11:1 29 11] [149] 2 0
r 3.877153667 _11_ AGT  --- 3 88 cbr 230 [5 b 6 0] ------- [1:1 11:1 29 11] [88] 2 0
s 3.880032759 _1_ AGT  --- 3 190 cbr 210 [0 0 0 0] ------- [1:1 11:1 32 0] [190] 0 0
r 3.883153667 _11_ AGT  --- 3 150 cbr 230 [5 b 6 0] ------- [1:1 11:1 29 11] [150] 2 0
s 3.891232759 _1_ AGT  --- 3 191 cbr 210 [0 0 0 0] ------- [1:1 11:1 32 0] [191] 0 0
s 3.902432759 _1_ AGT  --- 3 192 cbr 210 [0 0 0 0] ------- [1:1 11:1 32 0] [192] 0 0
s 3.913632759 _1_ AGT  --- 3 193 cbr 210 [0 0 0 0] ------- [1:1 11:1 32 0] [193] 0 0
s 3.924832759 _1_ AGT  --- 3 194 cbr 210 [0 0 0 0] ------- [1:1 11:1 32 0] [194] 0 0
r 3.925153667 _11_ AGT  --- 3 89 cbr 230 [5 b 6 0] ------- [1:1 11:1 29 11] [89] 2 0
r 3.931153667 _11_ AGT  --- 3 151 cbr 230 [5 b 6 0] ------- [1:1 11:1 29 11] [151] 2 0
s 3.936032759 _1_ AGT  --- 3 195 cbr 210 [0 0 0 0] ------- [1:1 11:1 32 0] [195] 0 0
r 3.937153667 _11_ AGT  --- 3 90 cbr 230 [5 b 6 0] ------- [1:1 11:1 29 11] [90] 2 0
s 3.947232759 _1_ AGT  --- 3 196 cbr 210 [0 0 0 0] ------- [1:1 11:1 32 0] [196] 0 0
s 3.958432759 _1_ AGT  --- 3 197 cbr 210 [0 0 0 0] ------- [1:1 11:1 32 0] [197] 0 0
s 3.969632759 _1_ AGT  --- 3 198 cbr 210 [0 0 0 0] ------- [1:1 11:1 32 0] [198] 0 0
r 3.979153667 _11_ AGT  --- 3 91 cbr 230 [5 b 6 0] ------- [1:1 11:1 29 11] [91] 2 0
s 3.980832759 _1_ AGT  --- 3 199 cbr 210 [0 0 0 0] ------- [1:1 11:1 32 0] [199] 0 0
r 3.985153667 _11_ AGT  --- 3 152 cbr 230 [5 b 6 0] ------- [1:1 11:1 29 11] [152] 2 0
r 3.991153667 _11_ AGT  --- 3 92 cbr 230 [5 b 6 0] ------- [1:1 11:1 29 11] [92] 2 0
s 3.992032759 _1_ AGT  --- 3 200 cbr 210 [0 0 0 0] ------- [1:1 11:1 32 0] [200] 0 0
s 4.003232759 _1_ AGT  --- 3 201 cbr 210 [0 0 0 0] ------- [1:1 11:1 32 0] [201] 0 0
s 4.014432759 _1_ AGT  --- 3 202 cbr 210 [0 0 0 0] ------- [1:1 11:1 32 0] [202] 0 0
s 4.025632759 _1_ AGT  --- 3 203 cbr 210 [0 0 0 0] ------- [1:1 11:1 32 0] [203] 0 0
r 4.033153667 _11_ AGT  --- 3 153 cbr 230 [5 b 6 0] ------- [1:1 11:1 29 11] [153] 2 0
s 4.036832759 _1_ AGT  --- 3 204 cbr 210 [0 0 0 0] ------- [1:1 11:1 32 0] [204] 0 0
r 4.039153667 _11_ AGT  --- 3 93 cbr 230 [5 b 6 0] ------- [1:1 11:1 29 11] [93] 2 0
r 4.045153667 _11_ AGT  --- 3 154 cbr 230 [5 b 6 0] ------- [1:1 11:1 29 11] [154] 2 0
s 4.048032759 _1_ AGT  --- 3 205 cbr 210 [0 0 0 0] ------- [1:1 11:1 32 0] [205] 0 0
s 4.059232759 _1_ AGT  --- 3 206 cbr 210 [0 0 0 0] ------- [1:1 11:1 32 0] [206] 0 0
s 4.070432759 _1_ AGT  --- 3 207 cbr 210 [0 0 0 0] ------- [1:1 11:1 32 0] [207] 0 0
s 4.081632759 _1_ AGT  --- 3 208 cbr 210 [0 0 0 0] ------- [1:1 11:1 32 0] [208] 0 0
r 4.087153667 _11_ AGT  --- 3 94 cbr 230 [5 b 6 0] ------- [1:1 11:1 29 11] [94] 2 0
s 4.092832759 _1_ AGT  --- 3 209 cbr 210 [0 0 0 0] ------- [1:1 11:1 32 0] [209] 0 0
r 4.093153667 _11_ AGT  --- 3 155 cbr 230 [5 b 6 0] ------- [1:1 11:1 29 11] [155] 2 0
r 4.099153667 _11_ AGT  --- 3 95 cbr 230 [5 b 6 0] ------- [1:1 11:1 29 11] [95] 2 0
s 4.104032759 _1_ AGT  --- 3 210 cbr 210 [0 0 0 0] ------- [1:1 11:1 32 0] [210] 0 0
s 4.115232759 _1_ AGT  --- 3 211 cbr 210 [0 0 0 0] ------- [1:1 11:1 32 0] [211] 0 0
s 4.126432759 _1_ AGT  --- 3 212 cbr 210 [0 0 0 0] ------- [1:1 11:1 32 0] [212] 0 0
s 4.137632759 _1_ AGT  --- 3 213 cbr 210 [0 0 0 0] ------- [1:1 11:1 32 0] [213] 0 0
r 4.141153667 _11_ AGT  --- 3 156 cbr 230 [5 b 6 0] ------- [1:1 11:1 29 11] [156] 2 0
r 4.147153667 _11_ AGT  --- 3 96 cbr 230 [5 b 6 0] ------- [1:1 11:1 29 11] [96] 2 0
s 4.148832759 _1_ AGT  --- 3 214 cbr 210 [0 0 0 0] ------- [1:1 11:1 32 0] [214] 0 0
r 4.153153667 _11_ AGT  --- 3 157 cbr 230 [5 b 6 0] ------- [1:1 11:1 29 11] [157] 2 0
s 4.160032759 _1_ AGT  --- 3 215 cbr 210 [0 0 0 0] ------- [1:1 11:1 32 0] [215] 0 0
s 4.171232759 _1_ AGT  --- 3 216 cbr 210 [0 0 0 0] ------- [1:1 11:1 32 0] [216] 0 0
s 4.182432759 _1_ AGT  --- 3 217 cbr 210 [0 0 0 0] ------- [1:1 11:1 32 0] [217] 0 0
s 4.193632759 _1_ AGT  --- 3 218 cbr 210 [0 0 0 0] ------- [1:1 11:1 32 0] [218] 0 0
r 4.195153667 _11_ AGT  --- 3 97 cbr 230 [5 b 6 0] ------- [1:1 11:1 29 11] [97] 2 0
r 4.201153667 _11_ AGT  --- 3 158 cbr 230 [5 b 6 0] ------- [1:1 11:1 29 11] [158] 2 0
s 4.204832759 _1_ AGT  --- 3 219 cbr 210 [0 0 0 0] ------- [1:1 11:1 32 0] [219] 0 0
r 4.207153667 _11_ AGT  --- 3 98 cbr 230 [5 b 6 0] ------- [1:1 11:1 29 11] [98] 2 0
s 4.216032759 _1_ AGT  --- 3 220 cbr 210 [0 0 0 0] ------- [1:1 11:1 32 0] [220] 0 0
s 4.227232759 _1_ AGT  --- 3 221 cbr 210 [0 0 0 0] ------- [1:1 11:1 32 0] [221] 0 0
s 4.238432759 _1_ AGT  --- 3 222 cbr 210 [0 0 0 0] ------- [1:1 11:1 32 0] [222] 0 0
r 4.249153667 _11_ AGT  --- 3 159 cbr 230 [5 b 6 0] ------- [1:1 11:1 29 11] [159] 2 0
s 4.249632759 _1_ AGT  --- 3 223 cbr 210 [0 0 0 0] ------- [1:1 11:1 32 0] [223] 0 0
r 4.255153667 _11_ AGT  --- 3 99 cbr 230 [5 b 6 0] ------- [1:1 11:1 29 11] [99] 2 0
s 4.260832759 _1_ AGT  --- 3 224 cbr 210 [0 0 0 0] ------- [1:1 11:1 32 0] [224] 0 0
r 4.261153667 _11_ AGT  --- 3 100 cbr 230 [5 b 6 0] ------- [1:1 11:1 29 11] [100] 2 0
s 4.272032759 _1_ AGT  --- 3 225 cbr 210 [0 0 0 0] ------- [1:1 11:1 32 0] [225] 0 0
s 4.283232759 _1_ AGT  --- 3 226 cbr 210 [0 0 0 0] ------- [1:1 11:1 32 0] [226] 0 0
s 4.294432759 _1_ AGT  --- 3 227 cbr 210 [0 0 0 0] ------- [1:1 11:1 32 0] [227] 0 0
r 4.303153667 _11_ AGT  --- 3 160 cbr 230 [5 b 6 0] ------- [1:1 11:1 29 11] [160] 2 0
s 4.305632759 _1_ AGT  --- 3 228 cbr 210 [0 0 0 0] ------- [1:1 11:1 32 0] [228] 0 0