s 47.674186364 _23_ AGT  --- 1 0 cbr 210 [0 0 0 0] ------- [23:0 18:0 32 0] [0] 0 0
s 47.707786364 _23_ AGT  --- 1 1 cbr 210 [0 0 0 0] ------- [23:0 18:0 32 0] [1] 0 0
s 47.741386364 _23_ AGT  --- 1 2 cbr 210 [0 0 0 0] ------- [23:0 18:0 32 0] [2] 0 0
s 47.774986364 _23_ AGT  --- 1 3 cbr 210 [0 0 0 0] ------- [23:0 18:0 32 0] [3] 0 0
s 47.808586364 _23_ AGT  --- 1 4 cbr 210 [0 0 0 0] ------- [23:0 18:0 32 0] [4] 0 0
s 47.842186364 _23_ AGT  --- 1 5 cbr 210 [0 0 0 0] ------- [23:0 18:0 32 0] [5] 0 0
s 47.875786364 _23_ AGT  --- 1 6 cbr 210 [0 0 0 0] ------- [23:0 18:0 32 0] [6] 0 0
s 47.909386364 _23_ AGT  --- 1 7 cbr 210 [0 0 0 0] ------- [23:0 18:0 32 0] [7] 0 0
s 47.942986364 _23_ AGT  --- 1 8 cbr 210 [0 0 0 0] ------- [23:0 18:0 32 0] [8] 0 0
s 47.976586364 _23_ AGT  --- 1 9 cbr 210 [0 0 0 0] ------- [23:0 18:0 32 0] [9] 0 0
s 48.010186364 _23_ AGT  --- 1 10 cbr 210 [0 0 0 0] ------- [23:0 18:0 32 0] [10] 0 0
s 48.043786364 _23_ AGT  --- 1 11 cbr 210 [0 0 0 0] ------- [23:0 18:0 32 0] [11] 0 0
r 48.061153667 _18_ AGT  --- 1 0 cbr 230 [5 12 17 0] ------- [23:0 18:0 30 18] [0] 1 0
s 48.077386364 _23_ AGT  --- 1 12 cbr 210 [0 0 0 0] ------- [23:0 18:0 32 0] [12] 0 0
s 48.110986364 _23_ AGT  --- 1 13 cbr 210 [0 0 0 0] ------- [23:0 18:0 32 0] [13] 0 0
r 48.121153667 _18_ AGT  --- 1 1 cbr 230 [5 12 17 0] ------- [23:0 18:0 30 18] [1] 1 0
s 48.144586364 _23_ AGT  --- 1 14 cbr 210 [0 0 0 0] ------- [23:0 18:0 32 0] [14] 0 0
s 48.178186364 _23_ AGT  --- 1 15 cbr 210 [0 0 0 0] ------- [23:0 18:0 32 0] [15] 0 0
r 48.181153667 _18_ AGT  --- 1 2 cbr 230 [5 12 17 0] ------- [23:0 18:0 30 18] [2] 1 0
s 48.211786364 _23_ AGT  --- 1 16 cbr 210 [0 0 0 0] ------- [23:0 18:0 32 0] [16] 0 0
r 48.241153667 _18_ AGT  --- 1 3 cbr 230 [5 12 17 0] ------- [23:0 18:0 30 18] [3] 1 0
s 48.245386364 _23_ AGT  --- 1 17 cbr 210 [0 0 0 0] ------- [23:0 18:0 32 0] [17] 0 0
s 48.278986364 _23_ AGT  --- 1 18 cbr 210 [0 0 0 0] ------- [23:0 18:0 32 0] [18] 0 0
r 48.301153667 _18_ AGT  --- 1 11 cbr 230 [5 12 17 0] ------- [23:0 18:0 30 18] [11] 1 0
s 48.312586364 _23_ AGT  --- 1 19 cbr 210 [0 0 0 0] ------- [23:0 18:0 32 0] [19] 0 0
s 48.346186364 _23_ AGT  --- 1 20 cbr 210 [0 0 0 0] ------- [23:0 18:0 32 0] [20] 0 0
r 48.361153667 _18_ AGT  --- 1 4 cbr 230 [5 12 17 0] ------- [23:0 18:0 30 18] [4] 1 0
s 48.379786364 _23_ AGT  --- 1 21 cbr 210 [0 0 0 0] ------- [23:0 18:0 32 0] [21] 0 0
s 48.413386364 _23_ AGT  --- 1 22 cbr 210 [0 0 0 0] ------- [23:0 18:0 32 0] [22] 0 0
r 48.421153667 _18_ AGT  --- 1 5 cbr 230 [5 12 17 0] ------- [23:0 18:0 30 18] [5] 1 0
s 48.446986364 _23_ AGT  --- 1 23 cbr 210 [0 0 0 0] ------- [23:0 18:0 32 0] [23] 0 0
s 48.480586364 _23_ AGT  --- 1 24 cbr 210 [0 0 0 0] ------- [23:0 18:0 32 0] [24] 0 0
r 48.481153667 _18_ AGT  --- 1 6 cbr 230 [5 12 17 0] ------- [23:0 18:0 30 18] [6] 1 0
s 48.514186364 _23_ AGT  --- 1 25 cbr 210 [0 0 0 0] ------- [23:0 18:0 32 0] [25] 0 0
r 48.541153667 _18_ AGT  --- 1 12 cbr 230 [5 12 17 0] ------- [23:0 18:0 30 18] [12] 1 0
s 48.547786364 _23_ AGT  --- 1 26 cbr 210 [0 0 0 0] ------- [23:0 18:0 32 0] [26] 0 0
s 48.581386364 _23_ AGT  --- 1 27 cbr 210 [0 0 0 0] ------- [23:0 18:0 32 0] [27] 0 0
r 48.601153667 _18_ AGT  --- 1 7 cbr 230 [5 12 17 0] ------- [23:0 18:0 30 18] [7] 1 0
s 48.614986364 _23_ AGT  --- 1 28 cbr 210 [0 0 0 0] ------- [23:0 18:0 32 0] [28] 0 0
s 48.648586364 _23_ AGT  --- 1 29 cbr 210 [0 0 0 0] ------- [23:0 18:0 32 0] [29] 0 0
r 48.661153667 _18_ AGT  --- 1 8 cbr 230 [5 12 17 0] ------- [23:0 18:0 30 18] [8] 1 0
s 48.682186364 _23_ AGT  --- 1 30 cbr 210 [0 0 0 0] ------- [23:0 18:0 32 0] [30] 0 0
s 48.715786364 _23_ AGT  --- 1 31 cbr 210 [0 0 0 0] ------- [23:0 18:0 32 0] [31] 0 0
r 48.721153667 _18_ AGT  --- 1 9 cbr 230 [5 12 17 0] ------- [23:0 18:0 30 18] [9] 1 0
s 48.749386364 _23_ AGT  --- 1 32 cbr 210 [0 0 0 0] ------- [23:0 18:0 32 0] [32] 0 0
r 48.781153667 _18_ AGT  --- 1 13 cbr 230 [5 12 17 0] ------- [23:0 18:0 30 18] [13] 1 0
s 48.782986364 _23_ AGT  --- 1 33 cbr 210 [0 0 0 0] ------- [23:0 18:0 32 0] [33] 0 0
s 48.816586364 _23_ AGT  --- 1 34 cbr 210 [0 0 0 0] ------- [23:0 18:0 32 0] [34] 0 0
r 48.841153667 _18_ AGT  --- 1 10 cbr 230 [5 12 17 0] ------- [23:0 18:0 30 18] [10] 1 0
s 48.850186364 _23_ AGT  --- 1 35 cbr 210 [0 0 0 0] ------- [23:0 18:0 32 0] [35] 0 0
s 48.883786364 _23_ AGT  --- 1 36 cbr 210 [0 0 0 0] ------- [23:0 18:0 32 0] [36] 0 0
r 48.901153667 _18_ AGT  --- 1 14 cbr 230 [5 12 17 0] ------- [23:0 18:0 30 18] [14] 1 0
s 48.917386364 _23_ AGT  --- 1 37 cbr 210 [0 0 0 0] ------- [23:0 18:0 32 0] [37] 0 0
s 48.950986364 _23_ AGT  --- 1 38 cbr 210 [0 0 0 0] ------- [23:0 18:0 32 0] [38] 0 0
r 48.961153667 _18_ AGT  --- 1 15 cbr 230 [5 12 17 0] ------- [23:0 18:0 30 18] [15] 1 0
s 48.984586364 _23_ AGT  --- 1 39 cbr 210 [0 0 0 0] ------- [23:0 18:0 32 0] [39] 0 0
s 49.018186364 _23_ AGT  --- 1 40 cbr 210 [0 0 0 0] ------- [23:0 18:0 32 0] [40] 0 0
r 49.021153667 _18_ AGT  --- 1 16 cbr 230 [5 12 17 0] ------- [23:0 18:0 30 18] [16] 1 0
s 49.051786364 _23_ AGT  --- 1 41 cbr 210 [0 0 0 0] ------- [23:0 18:0 32 0] [41] 0 0
r 49.081153667 _18_ AGT  --- 1 17 cbr 230 [5 12 17 0] ------- [23:0 18:0 30 18] [17] 1 0
s 49.085386364 _23_ AGT  --- 1 42 cbr 210 [0 0 0 0] ------- [23:0 18:0 32 0] [42] 0 0
s 49.118986364 _23_ AGT  --- 1 43 cbr 210 [0 0 0 0] ------- [23:0 18:0 32 0] [43] 0 0
r 49.141153667 _18_ AGT  --- 1 18 cbr 230 [5 12 17 0] ------- [23:0 18:0 30 18] [18] 1 0
s 49.152586364 _23_ AGT  --- 1 44 cbr 210 [0 0 0 0] ------- [23:0 18:0 32 0] [44] 0 0
s 49.186186364 _23_ AGT  --- 1 45 cbr 210 [0 0 0 0] ------- [23:0 18:0 32 0] [45] 0 0
r 49.201153667 _18_ AGT  --- 1 19 cbr 230 [5 12 17 0] ------- [23:0 18:0 30 18] [19] 1 0
s 49.219786364 _23_ AGT  --- 1 46 cbr 210 [0 0 0 0] ------- [23:0 18:0 32 0] [46] 0 0
s 49.253386364 _23_ AGT  --- 1 47 cbr 210 [0 0 0 0] ------- [23:0 18:0 32 0] [47] 0 0
r 49.261153667 _18_ AGT  --- 1 20 cbr 230 [5 12 17 0] ------- [23:0 18:0 30 18] [20] 1 0
s 49.286986364 _23_ AGT  --- 1 48 cbr 210 [0 0 0 0] ------- [23:0 18:0 32 0] [48] 0 0
s 49.320586364 _23_ AGT  --- 1 49 cbr 210 [0 0 0 0] ------- [23:0 18:0 32 0] [49] 0 0
r 49.321153667 _18_ AGT  --- 1 21 cbr 230 [5 12 17 0] ------- [23:0 18:0 30 18] [21] 1 0
s 49.354186364 _23_ AGT  --- 1 50 cbr 210 [0 0 0 0] ------- [23:0 18:0 32 0] [50] 0 0
r 49.381153667 _18_ AGT  --- 1 22 cbr 230 [5 12 17 0] ------- [23:0 18:0 30 18] [22] 1 0
s 49.387786364 _23_ AGT  --- 1 51 cbr 210 [0 0 0 0] ------- [23:0 18:0 32 0] [51] 0 0
s 49.421386364 _23_ AGT  --- 1 52 cbr 210 [0 0 0 0] ------- [23:0 18:0 32 0] [52] 0 0
r 49.441153667 _18_ AGT  --- 1 23 cbr 230 [5 12 17 0] ------- [23:0 18:0 30 18] [23] 1 0
s 49.454986364 _23_ AGT  --- 1 53 cbr 210 [0 0 0 0] ------- [23:0 18:0 32 0] [53] 0 0
s 49.488586364 _23_ AGT  --- 1 54 cbr 210 [0 0 0 0] ------- [23:0 18:0 32 0] [54] 0 0
r 49.501153667 _18_ AGT  --- 1 24 cbr 230 [5 12 17 0] ------- [23:0 18:0 30 18] [24] 1 0
s 49.522186364 _23_ AGT  --- 1 55 cbr 210 [0 0 0 0] ------- [23:0 18:0 32 0] [55] 0 0
s 49.555786364 _23_ AGT  --- 1 56 cbr 210 [0 0 0 0] ------- [23:0 18:0 32 0] [56] 0 0
r 49.561153667 _18_ AGT  --- 1 25 cbr 230 [5 12 17 0] ------- [23:0 18:0 30 18] [25] 1 0
s 49.589386364 _23_ AGT  --- 1 57 cbr 210 [0 0 0 0] ------- [23:0 18:0 32 0] [57] 0 0
r 49.621153667 _18_ AGT  --- 1 26 cbr 230 [5 12 17 0] ------- [23:0 18:0 30 18] [26] 1 0
s 49.622986364 _23_ AGT  --- 1 58 cbr 210 [0 0 0 0] ------- [23:0 18:0 32 0] [58] 0 0
s 49.656586364 _23_ AGT  --- 1 59 cbr 210 [0 0 0 0] ------- [23:0 18:0 32 0] [59] 0 0
r 49.681153667 _18_ AGT  --- 1 27 cbr 230 [5 12 17 0] ------- [23:0 18:0 30 18] [27] 1 0
s 49.690186364 _23_ AGT  --- 1 60 cbr 210 [0 0 0 0] ------- [23:0 18:0 32 0] [60] 0 0
s 49.723786364 _23_ AGT  --- 1 61 cbr 210 [0 0 0 0] ------- [23:0 18:0 32 0] [61] 0 0
r 49.741153667 _18_ AGT  --- 1 28 cbr 230 [5 12 17 0] ------- [23:0 18:0 30 18] [28] 1 0
s 49.757386364 _23_ AGT  --- 1 62 cbr 210 [0 0 0 0] ------- [23:0 18:0 32 0] [62] 0 0
s 49.790986364 _23_ AGT  --- 1 63 cbr 210 [0 0 0 0] ------- [23:0 18:0 32 0] [63] 0 0
r 49.801153667 _18_ AGT  --- 1 29 cbr 230 [5 12 17 0] ------- [23:0 18:0 30 18] [29] 1 0
s 49.824586364 _23_ AGT  --- 1 64 cbr 210 [0 0 0 0] ------- [23:0 18:0 32 0] [64] 0 0
s 49.858186364 _23_ AGT  --- 1 65 cbr 210 [0 0 0 0] ------- [23:0 18:0 32 0] [65] 0 0
r 49.861153667 _18_ AGT  --- 1 30 cbr 230 [5 12 17 0] ------- [23:0 18:0 30 18] [30] 1 0
s 49.891786364 _23_ AGT  --- 1 66 cbr 210 [0 0 0 0] ------- [23:0 18:0 32 0] [66] 0 0
r 49.921153667 _18_ AGT  --- 1 31 cbr 230 [5 12 17 0] ------- [23:0 18:0 30 18] [31] 1 0
s 49.925386364 _23_ AGT  --- 1 67 cbr 210 [0 0 0 0] ------- [23:0 18:0 32 0] [67] 0 0
s 49.958986364 _23_ AGT  --- 1 68 cbr 210 [0 0 0 0] ------- [23:0 18:0 32 0] [68] 0 0
r 49.981153667 _18_ AGT  --- 1 32 cbr 230 [5 12 17 0] ------- [23:0 18:0 30 18] [32] 1 0
s 49.992586364 _23_ AGT  --- 1 69 cbr 210 [0 0 0 0] ------- [23:0 18:0 32 0] [69] 0 0
s 50.026186364 _23_ AGT  --- 1 70 cbr 210 [0 0 0 0] ------- [23:0 18:0 32 0] [70] 0 0
r 50.041153667 _18_ AGT  --- 1 33 cbr 230 [5 12 17 0] ------- [23:0 18:0 30 18] [33] 1 0
s 50.059786364 _23_ AGT  --- 1 71 cbr 210 [0 0 0 0] ------- [23:0 18:0 32 0] [71] 0 0
s 50.093386364 _23_ AGT  --- 1 72 cbr 210 [0 0 0 0] ------- [23:0 18:0 32 0] [72] 0 0
r 50.101153667 _18_ AGT  --- 1 34 cbr 230 [5 12 17 0] ------- [23:0 18:0 30 18] [34] 1 0
s 50.126986364 _23_ AGT  --- 1 73 cbr 210 [0 0 0 0] ------- [23:0 18:0 32 0] [73] 0 0
s 50.160586364 _23_ AGT  --- 1 74 cbr 210 [0 0 0 0] ------- [23:0 18:0 32 0] [74] 0 0
r 50.161153667 _18_ AGT  --- 1 35 cbr 230 [5 12 17 0] ------- [23:0 18:0 30 18] [35] 1 0
s 50.194186364 _23_ AGT  --- 1 75 cbr 210 [0 0 0 0] ------- [23:0 18:0 32 0] [75] 0 0
r 50.221153667 _18_ AGT  --- 1 36 cbr 230 [5 12 17 0] ------- [23:0 18:0 30 18] [36] 1 0
s 50.227786364 _23_ AGT  --- 1 76 cbr 210 [0 0 0 0] ------- [23:0 18:0 32 0] [76] 0 0
s 50.261386364 _23_ AGT  --- 1 77 cbr 210 [0 0 0 0] ------- [23:0 18:0 32 0] [77] 0 0
r 50.281153667 _18_ AGT  --- 1 37 cbr 230 [5 12 17 0] ------- [23:0 18:0 30 18] [37] 1 0
s 50.294986364 _23_ AGT  --- 1 78 cbr 210 [0 0 0 0] ------- [23:0 18:0 32 0] [78] 0 0
s 50.328586364 _23_ AGT  --- 1 79 cbr 210 [0 0 0 0] ------- [23:0 18:0 32 0] [79] 0 0
r 50.341153667 _18_ AGT  --- 1 38 cbr 230 [5 12 17 0] ------- [23:0 18:0 30 18] [38] 1 0
s 50.362186364 _23_ AGT  --- 1 80 cbr 210 [0 0 0 0] ------- [23:0 18:0 32 0] [80] 0 0
s 50.395786364 _23_ AGT  --- 1 81 cbr 210 [0 0 0 0] ------- [23:0 18:0 32 0] [81] 0 0
r 50.401153667 _18_ AGT  --- 1 39 cbr 230 [5 12 17 0] ------- [23:0 18:0 30 18] [39] 1 0
s 50.429386364 _23_ AGT  --- 1 82 cbr 210 [0 0 0 0] ------- [23:0 18:0 32 0] [82] 0 0
r 50.461153667 _18_ AGT  --- 1 40 cbr 230 [5 12 17 0] ------- [23:0 18:0 30 18] [40] 1 0
s 50.462986364 _23_ AGT  --- 1 83 cbr 210 [0 0 0 0] ------- [23:0 18:0 32 0] [83] 0 0
s 50.496586364 _23_ AGT  --- 1 84 cbr 210 [0 0 0 0] ------- [23:0 18:0 32 0] [84] 0 0
r 50.521153667 _18_ AGT  --- 1 41 cbr 230 [5 12 17 0] ------- [23:0 18:0 30 18] [41] 1 0
s 50.530186364 _23_ AGT  --- 1 85 cbr 210 [0 0 0 0] ------- [23:0 18:0 32 0] [85] 0 0
s 50.563786364 _23_ AGT  --- 1 86 cbr 210 [0 0 0 0] ------- [23:0 18:0 32 0] [86] 0 0
r 50.581153667 _18_ AGT  --- 1 42 cbr 230 [5 12 17 0] ------- [23:0 18:0 30 18] [42] 1 0
s 50.597386364 _23_ AGT  --- 1 87 cbr 210 [0 0 0 0] ------- [23:0 18:0 32 0] [87] 0 0
s 50.630986364 _23_ AGT  --- 1 88 cbr 210 [0 0 0 0] ------- [23:0 18:0 32 0] [88] 0 0
r 50.641153667 _18_ AGT  --- 1 43 cbr 230 [5 12 17 0] ------- [23:0 18:0 30 18] [43] 1 0
s 50.664586364 _23_ AGT  --- 1 89 cbr 210 [0 0 0 0] ------- [23:0 18:0 32 0] [89] 0 0
s 50.698186364 _23_ AGT  --- 1 90 cbr 210 [0 0 0 0] ------- [23:0 18:0 32 0] [90] 0 0
r 50.701153667 _18_ AGT  --- 1 44 cbr 230 [5 12 17 0] ------- [23:0 18:0 30 18] [44] 1 0
s 50.731786364 _23_ AGT  --- 1 91 cbr 210 [0 0 0 0] ------- [23:0 18:0 32 0] [91] 0 0
r 50.761153667 _18_ AGT  --- 1 45 cbr 230 [5 12 17 0] ------- [23:0 18:0 30 18] [45] 1 0
s 50.765386364 _23_ AGT  --- 1 92 cbr 210 [0 0 0 0] ------- [23:0 18:0 32 0] [92] 0 0
s 50.798986364 _23_ AGT  --- 1 93 cbr 210 [0 0 0 0] ------- [23:0 18:0 32 0] [93] 0 0
r 50.821153667 _18_ AGT  --- 1 46 cbr 230 [5 12 17 0] ------- [23:0 18:0 30 18] [46] 1 0
s 50.832586364 _23_ AGT  --- 1 94 cbr 210 [0 0 0 0] ------- [23:0 18:0 32 0] [94] 0 0
s 50.866186364 _23_ AGT  --- 1 95 cbr 210 [0 0 0 0] ------- [23:0 18:0 32 0] [95] 0 0
r 50.881153667 _18_ AGT  --- 1 47 cbr 230 [5 12 17 0] ------- [23:0 18:0 30 18] [47] 1 0
s 50.899786364 _23_ AGT  --- 1 96 cbr 210 [0 0 0 0] ------- [23:0 18:0 32 0] [96] 0 0
s 50.933386364 _23_ AGT  --- 1 97 cbr 210 [0 0 0 0] ------- [23:0 18:0 32 0] [97] 0 0
r 50.941153667 _18_ AGT  --- 1 48 cbr 230 [5 12 17 0] ------- [23:0 18:0 30 18] [48] 1 0
s 50.966986364 _23_ AGT  --- 1 98 cbr 210 [0 0 0 0] ------- [23:0 18:0 32 0] [98] 0 0
s 51.000586364 _23_ AGT  --- 1 99 cbr 210 [0 0 0 0] ------- [23:0 18:0 32 0] [99] 0 0
r 51.001153667 _18_ AGT  --- 1 49 cbr 230 [5 12 17 0] ------- [23:0 18:0 30 18] [49] 1 0
s 51.034186364 _23_ AGT  --- 1 100 cbr 210 [0 0 0 0] ------- [23:0 18:0 32 0] [100] 0 0
r 51.061153667 _18_ AGT  --- 1 50 cbr 230 [5 12 17 0] ------- [23:0 18:0 30 18] [50] 1 0
s 51.067786364 _23_ AGT  --- 1 101 cbr 210 [0 0 0 0] ------- [23:0 18:0 32 0] [101] 0 0
s 51.101386364 _23_ AGT  --- 1 102 cbr 210 [0 0 0 0] ------- [23:0 18:0 32 0] [102] 0 0
r 51.121153667 _18_ AGT  --- 1 51 cbr 230 [5 12 17 0] ------- [23:0 18:0 30 18] [51] 1 0
s 51.134986364 _23_ AGT  --- 1 103 cbr 210 [0 0 0 0] ------- [23:0 18:0 32 0] [103] 0 0
s 51.168586364 _23_ AGT  --- 1 104 cbr 210 [0 0 0 0] ------- [23:0 18:0 32 0] [104] 0 0
r 51.181153667 _18_ AGT  --- 1 52 cbr 230 [5 12 17 0] ------- [23:0 18:0 30 18] [52] 1 0
s 51.202186364 _23_ AGT  --- 1 105 cbr 210 [0 0 0 0] ------- [23:0 18:0 32 0] [105] 0 0
s 51.235786364 _23_ AGT  --- 1 106 cbr 210 [0 0 0 0] ------- [23:0 18:0 32 0] [106] 0 0
r 51.241153667 _18_ AGT  --- 1 53 cbr 230 [5 12 17 0] ------- [23:0 18:0 30 18] [53] 1 0
s 51.269386364 _23_ AGT  --- 1 107 cbr 210 [0 0 0 0] ------- [23:0 18:0 32 0] [107] 0 0
r 51.301153667 _18_ AGT  --- 1 54 cbr 230 [5 12 17 0] ------- [23:0 18:0 30 18] [54] 1 0
s 51.302986364 _23_ AGT  --- 1 108 cbr 210 [0 0 0 0] ------- [23:0 18:0 32 0] [108] 0 0
s 51.336586364 _23_ AGT  --- 1 109 cbr 210 [0 0 0 0] ------- [23:0 18:0 32 0] [109] 0 0
r 51.361153667 _18_ AGT  --- 1 55 cbr 230 [5 12 17 0] ------- [23:0 18:0 30 18] [55] 1 0
s 51.370186364 _23_ AGT  --- 1 110 cbr 210 [0 0 0 0] ------- [23:0 18:0 32 0] [110] 0 0
s 51.403786364 _23_ AGT  --- 1 111 cbr 210 [0 0 0 0] ------- [23:0 18:0 32 0] [111] 0 0
r 51.421153667 _18_ AGT  --- 1 56 cbr 230 [5 12 17 0] ------- [23:0 18:0 30 18] [56] 1 0
s 51.437386364 _23_ AGT  --- 1 112 cbr 210 [0 0 0 0] ------- [23:0 18:0 32 0] [112] 0 0
s 51.470986364 _23_ AGT  --- 1 113 cbr 210 [0 0 0 0] ------- [23:0 18:0 32 0] [113] 0 0
r 51.481153667 _18_ AGT  --- 1 57 cbr 230 [5 12 17 0] ------- [23:0 18:0 30 18] [57] 1 0
s 51.504586364 _23_ AGT  --- 1 114 cbr 210 [0 0 0 0] ------- [23:0 18:0 32 0] [114] 0 0
s 51.538186364 _23_ AGT  --- 1 115 cbr 210 [0 0 0 0] ------- [23:0 18:0 32 0] [115] 0 0
r 51.541153667 _18_ AGT  --- 1 58 cbr 230 [5 12 17 0] ------- [23:0 18:0 30 18] [58] 1 0
s 51.571786364 _23_ AGT  --- 1 116 cbr 210 [0 0 0 0] ------- [23:0 18:0 32 0] [116] 0 0
r 51.601153667 _18_ AGT  --- 1 59 cbr 230 [5 12 17 0] ------- [23:0 18:0 30 18] [59] 1 0
s 51.605386364 _23_ AGT  --- 1 117 cbr 210 [0 0 0 0] ------- [23:0 18:0 32 0] [117] 0 0
s 51.638986364 _23_ AGT  --- 1 118 cbr 210 [0 0 0 0] ------- [23:0 18:0 32 0] [118] 0 0
r 51.661153667 _18_ AGT  --- 1 60 cbr 230 [5 12 17 0] ------- [23:0 18:0 30 18] [60] 1 0
s 51.672586364 _23_ AGT  --- 1 119 cbr 210 [0 0 0 0] ------- [23:0 18:0 32 0] [119] 0 0
s 51.706186364 _23_ AGT  --- 1 120 cbr 210 [0 0 0 0] ------- [23:0 18:0 32 0] [120] 0 0
r 51.721153667 _18_ AGT  --- 1 61 cbr 230 [5 12 17 0] ------- [23:0 18:0 30 18] [61] 1 0
s 51.739786364 _23_ AGT  --- 1 121 cbr 210 [0 0 0 0] ------- [23:0 18:0 32 0] [121] 0 0
s 51.773386364 _23_ AGT  --- 1 122 cbr 210 [0 0 0 0] ------- [23:0 18:0 32 0] [122] 0 0
r 51.781153667 _18_ AGT  --- 1 62 cbr 230 [5 12 17 0] ------- [23:0 18:0 30 18] [62] 1 0
s 51.806986364 _23_ AGT  --- 1 123 cbr 210 [0 0 0 0] ------- [23:0 18:0 32 0] [123] 0 0
s 51.840586364 _23_ AGT  --- 1 124 cbr 210 [0 0 0 0] ------- [23:0 18:0 32 0] [124] 0 0
r 51.841153667 _18_ AGT  --- 1 63 cbr 230 [5 12 17 0] ------- [23:0 18:0 30 18] [63] 1 0
s 51.874186364 _23_ AGT  --- 1 125 cbr 210 [0 0 0 0] ------- [23:0 18:0 32 0] [125] 0 0
r 51.901153667 _18_ AGT  --- 1 64 cbr 230 [5 12 17 0] ------- [23:0 18:0 30 18] [64] 1 0
s 51.907786364 _23_ AGT  --- 1 126 cbr 210 [0 0 0 0] ------- [23:0 18:0 32 0] [126] 0 0
s 51.941386364 _23_ AGT  --- 1 127 cbr 210 [0 0 0 0] ------- [23:0 18:0 32 0] [127] 0 0
r 51.961153667 _18_ AGT  --- 1 65 cbr 230 [5 12 17 0] ------- [23:0 18:0 30 18] [65] 1 0
s 51.974986364 _23_ AGT  --- 1 128 cbr 210 [0 0 0 0] ------- [23:0 18:0 32 0] [128] 0 0
s 52.008586364 _23_ AGT  --- 1 129 cbr 210 [0 0 0 0] ------- [23:0 18:0 32 0] [129] 0 0
r 52.021153667 _18_ AGT  --- 1 66 cbr 230 [5 12 17 0] ------- [23:0 18:0 30 18] [66] 1 0
s 52.042186364 _23_ AGT  --- 1 130 cbr 210 [0 0 0 0] ------- [23:0 18:0 32 0] [130] 0 0
s 52.075786364 _23_ AGT  --- 1 131 cbr 210 [0 0 0 0] ------- [23:0 18:0 32 0] [131] 0 0
r 52.081153667 _18_ AGT  --- 1 67 cbr 230 [5 12 17 0] ------- [23:0 18:0 30 18] [67] 1 0
s 52.109386364 _23_ AGT  --- 1 132 cbr 210 [0 0 0 0] ------- [23:0 18:0 32 0] [132] 0 0
r 52.141153667 _18_ AGT  --- 1 68 cbr 230 [5 12 17 0] ------- [23:0 18:0 30 18] [68] 1 0
s 52.142986364 _23_ AGT  --- 1 133 cbr 210 [0 0 0 0] ------- [23:0 18:0 32 0] [133] 0 0
s 52.176586364 _23_ AGT  --- 1 134 cbr 210 [0 0 0 0] ------- [23:0 18:0 32 0] [134] 0 0
r 52.201153667 _18_ AGT  --- 1 69 cbr 230 [5 12 17 0] ------- [23:0 18:0 30 18] [69] 1 0
s 52.210186364 _23_ AGT  --- 1 135 cbr 210 [0 0 0 0] ------- [23:0 18:0 32 0] [135] 0 0
s 52.243786364 _23_ AGT  --- 1 136 cbr 210 [0 0 0 0] ------- [23:0 18:0 32 0] [136] 0 0
r 52.261153667 _18_ AGT  --- 1 70 cbr 230 [5 12 17 0] ------- [23:0 18:0 30 18] [70] 1 0
s 52.277386364 _23_ AGT  --- 1 137 cbr 210 [0 0 0 0] ------- [23:0 18:0 32 0] [137] 0 0
s 52.310986364 _23_ AGT  --- 1 138 cbr 210 [0 0 0 0] ------- [23:0 18:0 32 0] [138] 0 0
r 52.321153667 _18_ AGT  --- 1 71 cbr 230 [5 12 17 0] ------- [23:0 18:0 30 18] [71] 1 0
s 52.344586364 _23_ AGT  --- 1 139 cbr 210 [0 0 0 0] ------- [23:0 18:0 32 0] [139] 0 0
s 52.378186364 _23_ AGT  --- 1 140 cbr 210 [0 0 0 0] ------- [23:0 18:0 32 0] [140] 0 0
r 52.381153667 _18_ AGT  --- 1 72 cbr 230 [5 12 17 0] ------- [23:0 18:0 30 18] [72] 1 0
s 52.411786364 _23_ AGT  --- 1 141 cbr 210 [0 0 0 0] ------- [23:0 18:0 32 0] [141] 0 0
r 52.441153667 _18_ AGT  --- 1 73 cbr 230 [5 12 17 0] ------- [23:0 18:0 30 18] [73] 1 0
s 52.445386364 _23_ AGT  --- 1 142 cbr 210 [0 0 0 0] ------- [23:0 18:0 32 0] [142] 0 0
s 52.478986364 _23_ AGT  --- 1 143 cbr 210 [0 0 0 0] ------- [23:0 18:0 32 0] [143] 0 0
r 52.501153667 _18_ AGT  --- 1 74 cbr 230 [5 12 17 0] ------- [23:0 18:0 30 18] [74] 1 0
s 52.512586364 _23_ AGT  --- 1 144 cbr 210 [0 0 0 0] ------- [23:0 18:0 32 0] [144] 0 0
s 52.546186364 _23_ AGT  --- 1 145 cbr 210 [0 0 0 0] ------- [23:0 18:0 32 0] [145] 0 0
r 52.561153667 _18_ AGT  --- 1 75 cbr 230 [5 12 17 0] ------- [23:0 18:0 30 18] [75] 1 0
s 52.579786364 _23_ AGT  --- 1 146 cbr 210 [0 0 0 0] ------- [23:0 18:0 32 0] [146] 0 0
s 52.613386364 _23_ AGT  --- 1 147 cbr 210 [0 0 0 0] ------- [23:0 18:0 32 0] [147] 0 0
r 52.621153667 _18_ AGT  --- 1 76 cbr 230 [5 12 17 0] ------- [23:0 18:0 30 18] [76] 1 0
s 52.646986364 _23_ AGT  --- 1 148 cbr 210 [0 0 0 0] ------- [23:0 18:0 32 0] [148] 0 0
s 52.680586364 _23_ AGT  --- 1 149 cbr 210 [0 0 0 0] ------- [23:0 18:0 32 0] [149] 0 0
r 52.681153667 _18_ AGT  --- 1 77 cbr 230 [5 12 17 0] ------- [23:0 18:0 30 18] [77] 1 0
s 52.714186364 _23_ AGT  --- 1 150 cbr 210 [0 0 0 0] ------- [23:0 18:0 32 0] [150] 0 0
r 52.741153667 _18_ AGT  --- 1 78 cbr 230 [5 12 17 0] ------- [23:0 18:0 30 18] [78] 1 0
s 52.747786364 _23_ AGT  --- 1 151 cbr 210 [0 0 0 0] ------- [23:0 18:0 32 0] [151] 0 0
s 52.781386364 _23_ AGT  --- 1 152 cbr 210 [0 0 0 0] ------- [23:0 18:0 32 0] [152] 0 0
r 52.801153667 _18_ AGT  --- 1 79 cbr 230 [5 12 17 0] ------- [23:0 18:0 30 18] [79] 1 0
s 52.814986364 _23_ AGT  --- 1 153 cbr 210 [0 0 0 0] ------- [23:0 18:0 32 0] [153] 0 0
s 52.848586364 _23_ AGT  --- 1 154 cbr 210 [0 0 0 0] ------- [23:0 18:0 32 0] [154] 0 0
r 52.861153667 _18_ AGT  --- 1 80 cbr 230 [5 12 17 0] ------- [23:0 18:0 30 18] [80] 1 0
s 52.882186364 _23_ AGT  --- 1 155 cbr 210 [0 0 0 0] ------- [23:0 18:0 32 0] [155] 0 0
s 52.915786364 _23_ AGT  --- 1 156 cbr 210 [0 0 0 0] ------- [23:0 18:0 32 0] [156] 0 0
r 52.921153667 _18_ AGT  --- 1 81 cbr 230 [5 12 17 0] ------- [23:0 18:0 30 18] [81] 1 0
s 52.949386364 _23_ AGT  --- 1 157 cbr 210 [0 0 0 0] ------- [23:0 18:0 32 0] [157] 0 0
r 52.981153667 _18_ AGT  --- 1 82 cbr 230 [5 12 17 0] ------- [23:0 18:0 30 18] [82] 1 0
s 52.982986364 _23_ AGT  --- 1 158 cbr 210 [0 0 0 0] ------- [23:0 18:0 32 0] [158] 0 0
s 53.016586364 _23_ AGT  --- 1 159 cbr 210 [0 0 0 0] ------- [23:0 18:0 32 0] [159] 0 0
r 53.041153667 _18_ AGT  --- 1 83 cbr 230 [5 12 17 0] ------- [23:0 18:0 30 18] [83] 1 0
s 53.050186364 _23_ AGT  --- 1 160 cbr 210 [0 0 0 0] ------- [23:0 18:0 32 0] [160] 0 0
s 53.083786364 _23_ AGT  --- 1 161 cbr 210 [0 0 0 0] ------- [23:0 18:0 32 0] [161] 0 0
r 53.101153667 _18_ AGT  --- 1 84 cbr 230 [5 12 17 0] ------- [23:0 18:0 30 18] [84] 1 0
s 53.117386364 _23_ AGT  --- 1 162 cbr 210 [0 0 0 0] ------- [23:0 18:0 32 0] [162] 0 0
s 53.150986364 _23_ AGT  --- 1 163 cbr 210 [0 0 0 0] ------- [23:0 18:0 32 0] [163] 0 0
r 53.161153667 _18_ AGT  --- 1 85 cbr 230 [5 12 17 0] ------- [23:0 18:0 30 18] [85] 1 0
s 53.184586364 _23_ AGT  --- 1 164 cbr 210 [0 0 0 0] ------- [23:0 18:0 32 0] [164] 0 0
s 53.218186364 _23_ AGT  --- 1 165 cbr 210 [0 0 0 0] ------- [23:0 18:0 32 0] [165] 0 0
r 53.221153667 _18_ AGT  --- 1 86 cbr 230 [5 12 17 0] ------- [23:0 18:0 30 18] [86] 1 0
s 53.251786364 _23_ AGT  --- 1 166 cbr 210 [0 0 0 0] ------- [23:0 18:0 32 0] [166] 0 0
r 53.281153667 _18_ AGT  --- 1 87 cbr 230 [5 12 17 0] ------- [23:0 18:0 30 18] [87] 1 0
s 53.285386364 _23_ AGT  --- 1 167 cbr 210 [0 0 0 0] ------- [23:0 18:0 32 0] [167] 0 0
s 53.318986364 _23_ AGT  --- 1 168 cbr 210 [0 0 0 0] ------- [23:0 18:0 32 0] [168] 0 0
r 53.341153667 _18_ AGT  --- 1 88 cbr 230 [5 12 17 0] ------- [23:0 18:0 30 18] [88] 1 0
s 53.352586364 _23_ AGT  --- 1 169 cbr 210 [0 0 0 0] ------- [23:0 18:0 32 0] [169] 0 0
s 53.386186364 _23_ AGT  --- 1 170 cbr 210 [0 0 0 0] ------- [23:0 18:0 32 0] [170] 0 0
r 53.401153667 _18_ AGT  --- 1 89 cbr 230 [5 12 17 0] ------- [23:0 18:0 30 18] [89] 1 0
s 53.419786364 _23_ AGT  --- 1 171 cbr 210 [0 0 0 0] ------- [23:0 18:0 32 0] [171] 0 0
s 53.453386364 _23_ AGT  --- 1 172 cbr 210 [0 0 0 0] ------- [23:0 18:0 32 0] [172] 0 0
r 53.461153667 _18_ AGT  --- 1 90 cbr 230 [5 12 17 0] ------- [23:0 18:0 30 18] [90] 1 0
s 53.486986364 _23_ AGT  --- 1 173 cbr 210 [0 0 0 0] ------- [23:0 18:0 32 0] [173] 0 0
s 53.520586364 _23_ AGT  --- 1 174 cbr 210 [0 0 0 0] ------- [23:0 18:0 32 0] [174] 0 0
r 53.521153667 _18_ AGT  --- 1 91 cbr 230 [5 12 17 0] ------- [23:0 18:0 30 18] [91] 1 0
s 53.554186364 _23_ AGT  --- 1 175 cbr 210 [0 0 0 0] ------- [23:0 18:0 32 0] [175] 0 0
r 53.581153667 _18_ AGT  --- 1 92 cbr 230 [5 12 17 0] ------- [23:0 18:0 30 18] [92] 1 0
s 53.587786364 _23_ AGT  --- 1 176 cbr 210 [0 0 0 0] ------- [23:0 18:0 32 0] [176] 0 0
s 53.621386364 _23_ AGT  --- 1 177 cbr 210 [0 0 0 0] ------- [23:0 18:0 32 0] [177] 0 0
r 53.641153667 _18_ AGT  --- 1 93 cbr 230 [5 12 17 0] ------- [23:0 18:0 30 18] [93] 1 0
s 53.654986364 _23_ AGT  --- 1 178 cbr 210 [0 0 0 0] ------- [23:0 18:0 32 0] [178] 0 0
s 53.688586364 _23_ AGT  --- 1 179 cbr 210 [0 0 0 0] ------- [23:0 18:0 32 0] [179] 0 0
r 53.701153667 _18_ AGT  --- 1 94 cbr 230 [5 12 17 0] ------- [23:0 18:0 30 18] [94] 1 0
s 53.722186364 _23_ AGT  --- 1 180 cbr 210 [0 0 0 0] ------- [23:0 18:0 32 0] [180] 0 0
s 53.755786364 _23_ AGT  --- 1 181 cbr 210 [0 0 0 0] ------- [23:0 18:0 32 0] [181] 0 0
r 53.761153667 _18_ AGT  --- 1 95 cbr 230 [5 12 17 0] ------- [23:0 18:0 30 18] [95] 1 0
s 53.789386364 _23_ AGT  --- 1 182 cbr 210 [0 0 0 0] ------- [23:0 18:0 32 0] [182] 0 0
r 53.821153667 _18_ AGT  --- 1 96 cbr 230 [5 12 17 0] ------- [23:0 18:0 30 18] [96] 1 0
s 53.822986364 _23_ AGT  --- 1 183 cbr 210 [0 0 0 0] ------- [23:0 18:0 32 0] [183] 0 0
s 53.856586364 _23_ AGT  --- 1 184 cbr 210 [0 0 0 0] ------- [23:0 18:0 32 0] [184] 0 0
r 53.881153667 _18_ AGT  --- 1 97 cbr 230 [5 12 17 0] ------- [23:0 18:0 30 18] [97] 1 0
s 53.890186364 _23_ AGT  --- 1 185 cbr 210 [0 0 0 0] ------- [23:0 18:0 32 0] [185] 0 0
s 53.923786364 _23_ AGT  --- 1 186 cbr 210 [0 0 0 0] ------- [23:0 18:0 32 0] [186] 0 0
r 53.941153667 _18_ AGT  --- 1 98 cbr 230 [5 12 17 0] ------- [23:0 18:0 30 18] [98] 1 0
s 53.957386364 _23_ AGT  --- 1 187 cbr 210 [0 0 0 0] ------- [23:0 18:0 32 0] [187] 0 0
s 53.990986364 _23_ AGT  --- 1 188 cbr 210 [0 0 0 0] ------- [23:0 18:0 32 0] [188] 0 0
r 54.001153667 _18_ AGT  --- 1 99 cbr 230 [5 12 17 0] ------- [23:0 18:0 30 18] [99] 1 0
s 54.024586364 _23_ AGT  --- 1 189 cbr 210 [0 0 0 0] ------- [23:0 18:0 32 0] [189] 0 0
s 54.058186364 _23_ AGT  --- 1 190 cbr 210 [0 0 0 0] ------- [23:0 18:0 32 0] [190] 0 0
r 54.061153667 _18_ AGT  --- 1 100 cbr 230 [5 12 17 0] ------- [23:0 18:0 30 18] [100] 1 0
s 54.091786364 _23_ AGT  --- 1 191 cbr 210 [0 0 0 0] ------- [23:0 18:0 32 0] [191] 0 0
r 54.121153667 _18_ AGT  --- 1 101 cbr 230 [5 12 17 0] ------- [23:0 18:0 30 18] [101] 1 0
s 54.125386364 _23_ AGT  --- 1 192 cbr 210 [0 0 0 0] ------- [23:0 18:0 32 0] [192] 0 0
s 54.158986364 _23_ AGT  --- 1 193 cbr 210 [0 0 0 0] ------- [23:0 18:0 32 0] [193] 0 0
r 54.181153667 _18_ AGT  --- 1 102 cbr 230 [5 12 17 0] ------- [23:0 18:0 30 18] [102] 1 0
s 54.192586364 _23_ AGT  --- 1 194 cbr 210 [0 0 0 0] ------- [23:0 18:0 32 0] [194] 0 0
s 54.226186364 _23_ AGT  --- 1 195 cbr 210 [0 0 0 0] ------- [23:0 18:0 32 0] [195] 0 0
r 54.241153667 _18_ AGT  --- 1 103 cbr 230 [5 12 17 0] ------- [23:0 18:0 30 18] [103] 1 0
s 54.259786364 _23_ AGT  --- 1 196 cbr 210 [0 0 0 0] ------- [23:0 18:0 32 0] [196] 0 0
s 54.293386364 _23_ AGT  --- 1 197 cbr 210 [0 0 0 0] ------- [23:0 18:0 32 0] [197] 0 0
r 54.301153667 _18_ AGT  --- 1 104 cbr 230 [5 12 17 0] ------- [23:0 18:0 30 18] [104] 1 0
s 54.326986364 _23_ AGT  --- 1 198 cbr 210 [0 0 0 0] ------- [23:0 18:0 32 0] [198] 0 0
s 54.360586364 _23_ AGT  --- 1 199 cbr 210 [0 0 0 0] ------- [23:0 18:0 32 0] [199] 0 0
r 54.361153667 _18_ AGT  --- 1 105 cbr 230 [5 12 17 0] ------- [23:0 18:0 30 18] [105] 1 0
s 54.394186364 _23_ AGT  --- 1 200 cbr 210 [0 0 0 0] ------- [23:0 18:0 32 0] [200] 0 0
r 54.421153667 _18_ AGT  --- 1 106 cbr 230 [5 12 17 0] ------- [23:0 18:0 30 18] [106] 1 0
s 54.427786364 _23_ AGT  --- 1 201 cbr 210 [0 0 0 0] ------- [23:0 18:0 32 0] [201] 0 0
s 54.461386364 _23_ AGT  --- 1 202 cbr 210 [0 0 0 0] ------- [23:0 18:0 32 0] [202] 0 0
r 54.481153667 _18_ AGT  --- 1 107 cbr 230 [5 12 17 0] ------- [23:0 18:0 30 18] [107] 1 0
s 54.494986364 _23_ AGT  --- 1 203 cbr 210 [0 0 0 0] ------- [23:0 18:0 32 0] [203] 0 0
s 54.528586364 _23_ AGT  --- 1 204 cbr 210 [0 0 0 0] ------- [23:0 18:0 32 0] [204] 0 0
r 54.541153667 _18_ AGT  --- 1 108 cbr 230 [5 12 17 0] ------- [23:0 18:0 30 18] [108] 1 0
s 54.562186364 _23_ AGT  --- 1 205 cbr 210 [0 0 0 0] ------- [23:0 18:0 32 0] [205] 0 0
s 54.595786364 _23_ AGT  --- 1 206 cbr 210 [0 0 0 0] ------- [23:0 18:0 32 0] [206] 0 0
r 54.601153667 _18_ AGT  --- 1 109 cbr 230 [5 12 17 0] ------- [23:0 18:0 30 18] [109] 1 0
s 54.629386364 _23_ AGT  --- 1 207 cbr 210 [0 0 0 0] ------- [23:0 18:0 32 0] [207] 0 0
r 54.661153667 _18_ AGT  --- 1 110 cbr 230 [5 12 17 0] ------- [23:0 18:0 30 18] [110] 1 0
s 54.662986364 _23_ AGT  --- 1 208 cbr 210 [0 0 0 0] ------- [23:0 18:0 32 0] [208] 0 0
s 54.696586364 _23_ AGT  --- 1 209 cbr 210 [0 0 0 0] ------- [23:0 18:0 32 0] [209] 0 0
r 54.721153667 _18_ AGT  --- 1 111 cbr 230 [5 12 17 0] ------- [23:0 18:0 30 18] [111] 1 0
s 54.730186364 _23_ AGT  --- 1 210 cbr 210 [0 0 0 0] ------- [23:0 18:0 32 0] [210] 0 0
s 54.763786364 _23_ AGT  --- 1 211 cbr 210 [0 0 0 0] ------- [23:0 18:0 32 0] [211] 0 0
r 54.781153667 _18_ AGT  --- 1 112 cbr 230 [5 12 17 0] ------- [23:0 18:0 30 18] [112] 1 0
s 54.797386364 _23_ AGT  --- 1 212 cbr 210 [0 0 0 0] ------- [23:0 18:0 32 0] [212] 0 0
s 54.830986364 _23_ AGT  --- 1 213 cbr 210 [0 0 0 0] ------- [23:0 18:0 32 0] [213] 0 0
D 54.831011364 _23_ IFQ  --- 1 213 cbr 230 [0 12 17 0] ------- [23:0 18:0 30 18] [213] 0 0
r 54.841153667 _18_ AGT  --- 1 113 cbr 230 [5 12 17 0] ------- [23:0 18:0 30 18] [113] 1 0
s 54.864586364 _23_ AGT  --- 1 214 cbr 210 [0 0 0 0] ------- [23:0 18:0 32 0] [214] 0 0
s 54.898186364 _23_ AGT  --- 1 215 cbr 210 [0 0 0 0] ------- [23:0 18:0 32 0] [215] 0 0
D 54.898211364 _23_ IFQ  --- 1 215 cbr 230 [0 12 17 0] ------- [23:0 18:0 30 18] [215] 0 0
r 54.901153667 _18_ AGT  --- 1 114 cbr 230 [5 12 17 0] ------- [23:0 18:0 30 18] [114] 1 0
s 54.931786364 _23_ AGT  --- 1 216 cbr 210 [0 0 0 0] ------- [23:0 18:0 32 0] [216] 0 0
r 54.961153667 _18_ AGT  --- 1 115 cbr 230 [5 12 17 0] ------- [23:0 18:0 30 18] [115] 1 0
s 54.965386364 _23_ AGT  --- 1 217 cbr 210 [0 0 0 0] ------- [23:0 18:0 32 0] [217] 0 0
s 54.998986364 _23_ AGT  --- 1 218 cbr 210 [0 0 0 0] ------- [23:0 18:0 32 0] [218] 0 0
D 54.999011364 _23_ IFQ  --- 1 218 cbr 230 [0 12 17 0] ------- [23:0 18:0 30 18] [218] 0 0
r 55.021153667 _18_ AGT  --- 1 116 cbr 230 [5 12 17 0] ------- [23:0 18:0 30 18] [116] 1 0
s 55.032586364 _23_ AGT  --- 1 219 cbr 210 [0 0 0 0] ------- [23:0 18:0 32 0] [219] 0 0
s 55.066186364 _23_ AGT  --- 1 220 cbr 210 [0 0 0 0] ------- [23:0 18:0 32 0] [220] 0 0