s 55.035561721 _2_ AGT  --- 1 0 cbr 210 [0 0 0 0] ------- [2:0 4:0 32 0] [0] 0 0
s 55.203561721 _2_ AGT  --- 1 1 cbr 210 [0 0 0 0] ------- [2:0 4:0 32 0] [1] 0 0
r 55.285153667 _4_ AGT  --- 1 0 cbr 230 [5 4 3 0] ------- [2:0 4:0 29 4] [0] 2 0
r 55.315153667 _4_ AGT  --- 1 1 cbr 230 [5 4 3 0] ------- [2:0 4:0 29 4] [1] 2 0
s 55.371561721 _2_ AGT  --- 1 2 cbr 210 [0 0 0 0] ------- [2:0 4:0 32 0] [2] 0 0
r 55.405153667 _4_ AGT  --- 1 2 cbr 230 [5 4 3 0] ------- [2:0 4:0 29 4] [2] 2 0
s 55.539561721 _2_ AGT  --- 1 3 cbr 210 [0 0 0 0] ------- [2:0 4:0 32 0] [3] 0 0
r 55.555153667 _4_ AGT  --- 1 3 cbr 230 [5 4 3 0] ------- [2:0 4:0 29 4] [3] 2 0
s 55.707561721 _2_ AGT  --- 1 4 cbr 210 [0 0 0 0] ------- [2:0 4:0 32 0] [4] 0 0
r 55.735153667 _4_ AGT  --- 1 4 cbr 230 [5 4 3 0] ------- [2:0 4:0 29 4] [4] 2 0
s 55.875561721 _2_ AGT  --- 1 5 cbr 210 [0 0 0 0] ------- [2:0 4:0 32 0] [5] 0 0
r 55.885153667 _4_ AGT  --- 1 5 cbr 230 [5 4 3 0] ------- [2:0 4:0 29 4] [5] 2 0
s 56.043561721 _2_ AGT  --- 1 6 cbr 210 [0 0 0 0] ------- [2:0 4:0 32 0] [6] 0 0
r 56.065153667 _4_ AGT  --- 1 6 cbr 230 [5 4 3 0] ------- [2:0 4:0 29 4] [6] 2 0
s 56.211561721 _2_ AGT  --- 1 7 cbr 210 [0 0 0 0] ------- [2:0 4:0 32 0] [7] 0 0
r 56.245153667 _4_ AGT  --- 1 7 cbr 230 [5 4 3 0] ------- [2:0 4:0 29 4] [7] 2 0
s 56.379561721 _2_ AGT  --- 1 8 cbr 210 [0 0 0 0] ------- [2:0 4:0 32 0] [8] 0 0
r 56.395153667 _4_ AGT  --- 1 8 cbr 230 [5 4 3 0] ------- [2:0 4:0 29 4] [8] 2 0
s 56.547561721 _2_ AGT  --- 1 9 cbr 210 [0 0 0 0] ------- [2:0 4:0 32 0] [9] 0 0
r 56.575153667 _4_ AGT  --- 1 9 cbr 230 [5 4 3 0] ------- [2:0 4:0 29 4] [9] 2 0
s 56.715561721 _2_ AGT  --- 1 10 cbr 210 [0 0 0 0] ------- [2:0 4:0 32 0] [10] 0 0
r 56.725153667 _4_ AGT  --- 1 10 cbr 230 [5 4 3 0] ------- [2:0 4:0 29 4] [10] 2 0
s 56.883561721 _2_ AGT  --- 1 11 cbr 210 [0 0 0 0] ------- [2:0 4:0 32 0] [11] 0 0
r 56.905153667 _4_ AGT  --- 1 11 cbr 230 [5 4 3 0] ------- [2:0 4:0 29 4] [11] 2 0
s 57.051561721 _2_ AGT  --- 1 12 cbr 210 [0 0 0 0] ------- [2:0 4:0 32 0] [12] 0 0
r 57.085153667 _4_ AGT  --- 1 12 cbr 230 [5 4 3 0] ------- [2:0 4:0 29 4] [12] 2 0
s 57.219561721 _2_ AGT  --- 1 13 cbr 210 [0 0 0 0] ------- [2:0 4:0 32 0] [13] 0 0
r 57.235153667 _4_ AGT  --- 1 13 cbr 230 [5 4 3 0] ------- [2:0 4:0 29 4] [13] 2 0
s 57.387561721 _2_ AGT  --- 1 14 cbr 210 [0 0 0 0] ------- [2:0 4:0 32 0] [14] 0 0
r 57.415153667 _4_ AGT  --- 1 14 cbr 230 [5 4 3 0] ------- [2:0 4:0 29 4] [14] 2 0
s 57.555561721 _2_ AGT  --- 1 15 cbr 210 [0 0 0 0] ------- [2:0 4:0 32 0] [15] 0 0
r 57.565153667 _4_ AGT  --- 1 15 cbr 230 [5 4 3 0] ------- [2:0 4:0 29 4] [15] 2 0
s 57.723561721 _2_ AGT  --- 1 16 cbr 210 [0 0 0 0] ------- [2:0 4:0 32 0] [16] 0 0
r 57.745153667 _4_ AGT  --- 1 16 cbr 230 [5 4 3 0] ------- [2:0 4:0 29 4] [16] 2 0
s 57.891561721 _2_ AGT  --- 1 17 cbr 210 [0 0 0 0] ------- [2:0 4:0 32 0] [17] 0 0
r 57.925153667 _4_ AGT  --- 1 17 cbr 230 [5 4 3 0] ------- [2:0 4:0 29 4] [17] 2 0
s 58.059561721 _2_ AGT  --- 1 18 cbr 210 [0 0 0 0] ------- [2:0 4:0 32 0] [18] 0 0
r 58.075153667 _4_ AGT  --- 1 18 cbr 230 [5 4 3 0] ------- [2:0 4:0 29 4] [18] 2 0
s 58.227561721 _2_ AGT  --- 1 19 cbr 210 [0 0 0 0] ------- [2:0 4:0 32 0] [19] 0 0
r 58.255153667 _4_ AGT  --- 1 19 cbr 230 [5 4 3 0] ------- [2:0 4:0 29 4] [19] 2 0
s 58.395561721 _2_ AGT  --- 1 20 cbr 210 [0 0 0 0] ------- [2:0 4:0 32 0] [20] 0 0
r 58.435153667 _4_ AGT  --- 1 20 cbr 230 [5 4 3 0] ------- [2:0 4:0 29 4] [20] 2 0
s 58.563561721 _2_ AGT  --- 1 21 cbr 210 [0 0 0 0] ------- [2:0 4:0 32 0] [21] 0 0
r 58.585153667 _4_ AGT  --- 1 21 cbr 230 [5 4 3 0] ------- [2:0 4:0 29 4] [21] 2 0
s 58.731561721 _2_ AGT  --- 1 22 cbr 210 [0 0 0 0] ------- [2:0 4:0 32 0] [22] 0 0
r 58.765153667 _4_ AGT  --- 1 22 cbr 230 [5 4 3 0] ------- [2:0 4:0 29 4] [22] 2 0
s 58.899561721 _2_ AGT  --- 1 23 cbr 210 [0 0 0 0] ------- [2:0 4:0 32 0] [23] 0 0
r 58.915153667 _4_ AGT  --- 1 23 cbr 230 [5 4 3 0] ------- [2:0 4:0 29 4] [23] 2 0
s 59.067561721 _2_ AGT  --- 1 24 cbr 210 [0 0 0 0] ------- [2:0 4:0 32 0] [24] 0 0
r 59.095153667 _4_ AGT  --- 1 24 cbr 230 [5 4 3 0] ------- [2:0 4:0 29 4] [24] 2 0
s 59.235561721 _2_ AGT  --- 1 25 cbr 210 [0 0 0 0] ------- [2:0 4:0 32 0] [25] 0 0
r 59.245153667 _4_ AGT  --- 1 25 cbr 230 [5 4 3 0] ------- [2:0 4:0 29 4] [25] 2 0
s 59.403561721 _2_ AGT  --- 1 26 cbr 210 [0 0 0 0] ------- [2:0 4:0 32 0] [26] 0 0
r 59.425153667 _4_ AGT  --- 1 26 cbr 230 [5 4 3 0] ------- [2:0 4:0 29 4] [26] 2 0
s 59.571561721 _2_ AGT  --- 1 27 cbr 210 [0 0 0 0] ------- [2:0 4:0 32 0] [27] 0 0
r 59.635153667 _4_ AGT  --- 1 27 cbr 230 [5 4 3 0] ------- [2:0 4:0 29 4] [27] 2 0
s 59.739561721 _2_ AGT  --- 1 28 cbr 210 [0 0 0 0] ------- [2:0 4:0 32 0] [28] 0 0
r 59.755153667 _4_ AGT  --- 1 28 cbr 230 [5 4 3 0] ------- [2:0 4:0 29 4] [28] 2 0
s 59.907561721 _2_ AGT  --- 1 29 cbr 210 [0 0 0 0] ------- [2:0 4:0 32 0] [29] 0 0
r 59.935153667 _4_ AGT  --- 1 29 cbr 230 [5 4 3 0] ------- [2:0 4:0 29 4] [29] 2 0
s 60.075561721 _2_ AGT  --- 1 30 cbr 210 [0 0 0 0] ------- [2:0 4:0 32 0] [30] 0 0
r 60.085153667 _4_ AGT  --- 1 30 cbr 230 [5 4 3 0] ------- [2:0 4:0 29 4] [30] 2 0
s 60.243561721 _2_ AGT  --- 1 31 cbr 210 [0 0 0 0] ------- [2:0 4:0 32 0] [31] 0 0
r 60.265153667 _4_ AGT  --- 1 31 cbr 230 [5 4 3 0] ------- [2:0 4:0 29 4] [31] 2 0
s 60.411561721 _2_ AGT  --- 1 32 cbr 210 [0 0 0 0] ------- [2:0 4:0 32 0] [32] 0 0
r 60.445153667 _4_ AGT  --- 1 32 cbr 230 [5 4 3 0] ------- [2:0 4:0 29 4] [32] 2 0
s 60.579561721 _2_ AGT  --- 1 33 cbr 210 [0 0 0 0] ------- [2:0 4:0 32 0] [33] 0 0
r 60.595153667 _4_ AGT  --- 1 33 cbr 230 [5 4 3 0] ------- [2:0 4:0 29 4] [33] 2 0
s 60.747561721 _2_ AGT  --- 1 34 cbr 210 [0 0 0 0] ------- [2:0 4:0 32 0] [34] 0 0
r 60.775153667 _4_ AGT  --- 1 34 cbr 230 [5 4 3 0] ------- [2:0 4:0 29 4] [34] 2 0
s 60.915561721 _2_ AGT  --- 1 35 cbr 210 [0 0 0 0] ------- [2:0 4:0 32 0] [35] 0 0
r 60.925153667 _4_ AGT  --- 1 35 cbr 230 [5 4 3 0] ------- [2:0 4:0 29 4] [35] 2 0
s 61.083561721 _2_ AGT  --- 1 36 cbr 210 [0 0 0 0] ------- [2:0 4:0 32 0] [36] 0 0
r 61.105153667 _4_ AGT  --- 1 36 cbr 230 [5 4 3 0] ------- [2:0 4:0 29 4] [36] 2 0
s 61.251561721 _2_ AGT  --- 1 37 cbr 210 [0 0 0 0] ------- [2:0 4:0 32 0] [37] 0 0
r 61.285153667 _4_ AGT  --- 1 37 cbr 230 [5 4 3 0] ------- [2:0 4:0 29 4] [37] 2 0
s 61.419561721 _2_ AGT  --- 1 38 cbr 210 [0 0 0 0] ------- [2:0 4:0 32 0] [38] 0 0
r 61.435153667 _4_ AGT  --- 1 38 cbr 230 [5 4 3 0] ------- [2:0 4:0 29 4] [38] 2 0
s 61.587561721 _2_ AGT  --- 1 39 cbr 210 [0 0 0 0] ------- [2:0 4:0 32 0] [39] 0 0
r 61.615153667 _4_ AGT  --- 1 39 cbr 230 [5 4 3 0] ------- [2:0 4:0 29 4] [39] 2 0
s 61.755561721 _2_ AGT  --- 1 40 cbr 210 [0 0 0 0] ------- [2:0 4:0 32 0] [40] 0 0
r 61.795153667 _4_ AGT  --- 1 40 cbr 230 [5 4 3 0] ------- [2:0 4:0 29 4] [40] 2 0
s 61.923561721 _2_ AGT  --- 1 41 cbr 210 [0 0 0 0] ------- [2:0 4:0 32 0] [41] 0 0
r 61.945153667 _4_ AGT  --- 1 41 cbr 230 [5 4 3 0] ------- [2:0 4:0 29 4] [41] 2 0
s 62.091561721 _2_ AGT  --- 1 42 cbr 210 [0 0 0 0] ------- [2:0 4:0 32 0] [42] 0 0
r 62.125153667 _4_ AGT  --- 1 42 cbr 230 [5 4 3 0] ------- [2:0 4:0 29 4] [42] 2 0
s 62.259561721 _2_ AGT  --- 1 43 cbr 210 [0 0 0 0] ------- [2:0 4:0 32 0] [43] 0 0
r 62.275153667 _4_ AGT  --- 1 43 cbr 230 [5 4 3 0] ------- [2:0 4:0 29 4] [43] 2 0
s 62.427561721 _2_ AGT  --- 1 44 cbr 210 [0 0 0 0] ------- [2:0 4:0 32 0] [44] 0 0
r 62.455153667 _4_ AGT  --- 1 44 cbr 230 [5 4 3 0] ------- [2:0 4:0 29 4] [44] 2 0
s 62.595561721 _2_ AGT  --- 1 45 cbr 210 [0 0 0 0] ------- [2:0 4:0 32 0] [45] 0 0
r 62.605153667 _4_ AGT  --- 1 45 cbr 230 [5 4 3 0] ------- [2:0 4:0 29 4] [45] 2 0
s 62.763561721 _2_ AGT  --- 1 46 cbr 210 [0 0 0 0] ------- [2:0 4:0 32 0] [46] 0 0
r 62.785153667 _4_ AGT  --- 1 46 cbr 230 [5 4 3 0] ------- [2:0 4:0 29 4] [46] 2 0
s 62.931561721 _2_ AGT  --- 1 47 cbr 210 [0 0 0 0] ------- [2:0 4:0 32 0] [47] 0 0
r 62.965153667 _4_ AGT  --- 1 47 cbr 230 [5 4 3 0] ------- [2:0 4:0 29 4] [47] 2 0
s 63.099561721 _2_ AGT  --- 1 48 cbr 210 [0 0 0 0] ------- [2:0 4:0 32 0] [48] 0 0
r 63.115153667 _4_ AGT  --- 1 48 cbr 230 [5 4 3 0] ------- [2:0 4:0 29 4] [48] 2 0
s 63.267561721 _2_ AGT  --- 1 49 cbr 210 [0 0 0 0] ------- [2:0 4:0 32 0] [49] 0 0
r 63.295153667 _4_ AGT  --- 1 49 cbr 230 [5 4 3 0] ------- [2:0 4:0 29 4] [49] 2 0
s 63.435561721 _2_ AGT  --- 1 50 cbr 210 [0 0 0 0] ------- [2:0 4:0 32 0] [50] 0 0
r 63.445153667 _4_ AGT  --- 1 50 cbr 230 [5 4 3 0] ------- [2:0 4:0 29 4] [50] 2 0
s 63.603561721 _2_ AGT  --- 1 51 cbr 210 [0 0 0 0] ------- [2:0 4:0 32 0] [51] 0 0
r 63.625153667 _4_ AGT  --- 1 51 cbr 230 [5 4 3 0] ------- [2:0 4:0 29 4] [51] 2 0
s 63.771561721 _2_ AGT  --- 1 52 cbr 210 [0 0 0 0] ------- [2:0 4:0 32 0] [52] 0 0
r 63.805153667 _4_ AGT  --- 1 52 cbr 230 [5 4 3 0] ------- [2:0 4:0 29 4] [52] 2 0
s 63.939561721 _2_ AGT  --- 1 53 cbr 210 [0 0 0 0] ------- [2:0 4:0 32 0] [53] 0 0
r 63.955153667 _4_ AGT  --- 1 53 cbr 230 [5 4 3 0] ------- [2:0 4:0 29 4] [53] 2 0
s 64.107561721 _2_ AGT  --- 1 54 cbr 210 [0 0 0 0] ------- [2:0 4:0 32 0] [54] 0 0
r 64.135153667 _4_ AGT  --- 1 54 cbr 230 [5 4 3 0] ------- [2:0 4:0 29 4] [54] 2 0
s 64.275561721 _2_ AGT  --- 1 55 cbr 210 [0 0 0 0] ------- [2:0 4:0 32 0] [55] 0 0
r 64.285153667 _4_ AGT  --- 1 55 cbr 230 [5 4 3 0] ------- [2:0 4:0 29 4] [55] 2 0
s 64.443561721 _2_ AGT  --- 1 56 cbr 210 [0 0 0 0] ------- [2:0 4:0 32 0] [56] 0 0
r 64.465153667 _4_ AGT  --- 1 56 cbr 230 [5 4 3 0] ------- [2:0 4:0 29 4] [56] 2 0
s 64.611561721 _2_ AGT  --- 1 57 cbr 210 [0 0 0 0] ------- [2:0 4:0 32 0] [57] 0 0
r 64.645153667 _4_ AGT  --- 1 57 cbr 230 [5 4 3 0] ------- [2:0 4:0 29 4] [57] 2 0
s 64.779561721 _2_ AGT  --- 1 58 cbr 210 [0 0 0 0] ------- [2:0 4:0 32 0] [58] 0 0
r 64.795153667 _4_ AGT  --- 1 58 cbr 230 [5 4 3 0] ------- [2:0 4:0 29 4] [58] 2 0
s 64.947561721 _2_ AGT  --- 1 59 cbr 210 [0 0 0 0] ------- [2:0 4:0 32 0] [59] 0 0
r 64.975153667 _4_ AGT  --- 1 59 cbr 230 [5 4 3 0] ------- [2:0 4:0 29 4] [59] 2 0
s 65.115561721 _2_ AGT  --- 1 60 cbr 210 [0 0 0 0] ------- [2:0 4:0 32 0] [60] 0 0
r 65.125153667 _4_ AGT  --- 1 60 cbr 230 [5 4 3 0] ------- [2:0 4:0 29 4] [60] 2 0
s 65.283561721 _2_ AGT  --- 1 61 cbr 210 [0 0 0 0] ------- [2:0 4:0 32 0] [61] 0 0
r 65.305153667 _4_ AGT  --- 1 61 cbr 230 [5 4 3 0] ------- [2:0 4:0 29 4] [61] 2 0
s 65.451561721 _2_ AGT  --- 1 62 cbr 210 [0 0 0 0] ------- [2:0 4:0 32 0] [62] 0 0
r 65.485153667 _4_ AGT  --- 1 62 cbr 230 [5 4 3 0] ------- [2:0 4:0 29 4] [62] 2 0
s 65.619561721 _2_ AGT  --- 1 63 cbr 210 [0 0 0 0] ------- [2:0 4:0 32 0] [63] 0 0
r 65.635153667 _4_ AGT  --- 1 63 cbr 230 [5 4 3 0] ------- [2:0 4:0 29 4] [63] 2 0
s 65.787561721 _2_ AGT  --- 1 64 cbr 210 [0 0 0 0] ------- [2:0 4:0 32 0] [64] 0 0
r 65.815153667 _4_ AGT  --- 1 64 cbr 230 [5 4 3 0] ------- [2:0 4:0 29 4] [64] 2 0
s 65.955561721 _2_ AGT  --- 1 65 cbr 210 [0 0 0 0] ------- [2:0 4:0 32 0] [65] 0 0
r 65.965153667 _4_ AGT  --- 1 65 cbr 230 [5 4 3 0] ------- [2:0 4:0 29 4] [65] 2 0
s 66.123561721 _2_ AGT  --- 1 66 cbr 210 [0 0 0 0] ------- [2:0 4:0 32 0] [66] 0 0
r 66.145153667 _4_ AGT  --- 1 66 cbr 230 [5 4 3 0] ------- [2:0 4:0 29 4] [66] 2 0
s 66.291561721 _2_ AGT  --- 1 67 cbr 210 [0 0 0 0] ------- [2:0 4:0 32 0] [67] 0 0
r 66.325153667 _4_ AGT  --- 1 67 cbr 230 [5 4 3 0] ------- [2:0 4:0 29 4] [67] 2 0
s 66.459561721 _2_ AGT  --- 1 68 cbr 210 [0 0 0 0] ------- [2:0 4:0 32 0] [68] 0 0
r 66.475153667 _4_ AGT  --- 1 68 cbr 230 [5 4 3 0] ------- [2:0 4:0 29 4] [68] 2 0
s 66.627561721 _2_ AGT  --- 1 69 cbr 210 [0 0 0 0] ------- [2:0 4:0 32 0] [69] 0 0
r 66.655153667 _4_ AGT  --- 1 69 cbr 230 [5 4 3 0] ------- [2:0 4:0 29 4] [69] 2 0
s 66.795561721 _2_ AGT  --- 1 70 cbr 210 [0 0 0 0] ------- [2:0 4:0 32 0] [70] 0 0
r 66.805153667 _4_ AGT  --- 1 70 cbr 230 [5 4 3 0] ------- [2:0 4:0 29 4] [70] 2 0
s 66.963561721 _2_ AGT  --- 1 71 cbr 210 [0 0 0 0] ------- [2:0 4:0 32 0] [71] 0 0
r 66.985153667 _4_ AGT  --- 1 71 cbr 230 [5 4 3 0] ------- [2:0 4:0 29 4] [71] 2 0
s 67.131561721 _2_ AGT  --- 1 72 cbr 210 [0 0 0 0] ------- [2:0 4:0 32 0] [72] 0 0
r 67.165153667 _4_ AGT  --- 1 72 cbr 230 [5 4 3 0] ------- [2:0 4:0 29 4] [72] 2 0
s 67.299561721 _2_ AGT  --- 1 73 cbr 210 [0 0 0 0] ------- [2:0 4:0 32 0] [73] 0 0
r 67.315153667 _4_ AGT  --- 1 73 cbr 230 [5 4 3 0] ------- [2:0 4:0 29 4] [73] 2 0
s 67.467561721 _2_ AGT  --- 1 74 cbr 210 [0 0 0 0] ------- [2:0 4:0 32 0] [74] 0 0
r 67.495153667 _4_ AGT  --- 1 74 cbr 230 [5 4 3 0] ------- [2:0 4:0 29 4] [74] 2 0
s 67.635561721 _2_ AGT  --- 1 75 cbr 210 [0 0 0 0] ------- [2:0 4:0 32 0] [75] 0 0
r 67.645153667 _4_ AGT  --- 1 75 cbr 230 [5 4 3 0] ------- [2:0 4:0 29 4] [75] 2 0
s 67.803561721 _2_ AGT  --- 1 76 cbr 210 [0 0 0 0] ------- [2:0 4:0 32 0] [76] 0 0
r 67.825153667 _4_ AGT  --- 1 76 cbr 230 [5 4 3 0] ------- [2:0 4:0 29 4] [76] 2 0
s 67.971561721 _2_ AGT  --- 1 77 cbr 210 [0 0 0 0] ------- [2:0 4:0 32 0] [77] 0 0
r 68.005153667 _4_ AGT  --- 1 77 cbr 230 [5 4 3 0] ------- [2:0 4:0 29 4] [77] 2 0
s 68.139561721 _2_ AGT  --- 1 78 cbr 210 [0 0 0 0] ------- [2:0 4:0 32 0] [78] 0 0
r 68.155153667 _4_ AGT  --- 1 78 cbr 230 [5 4 3 0] ------- [2:0 4:0 29 4] [78] 2 0
s 68.307561721 _2_ AGT  --- 1 79 cbr 210 [0 0 0 0] ------- [2:0 4:0 32 0] [79] 0 0
r 68.335153667 _4_ AGT  --- 1 79 cbr 230 [5 4 3 0] ------- [2:0 4:0 29 4] [79] 2 0
s 68.475561721 _2_ AGT  --- 1 80 cbr 210 [0 0 0 0] ------- [2:0 4:0 32 0] [80] 0 0
r 68.485153667 _4_ AGT  --- 1 80 cbr 230 [5 4 3 0] ------- [2:0 4:0 29 4] [80] 2 0
s 68.643561721 _2_ AGT  --- 1 81 cbr 210 [0 0 0 0] ------- [2:0 4:0 32 0] [81] 0 0
r 68.665153667 _4_ AGT  --- 1 81 cbr 230 [5 4 3 0] ------- [2:0 4:0 29 4] [81] 2 0
s 68.811561721 _2_ AGT  --- 1 82 cbr 210 [0 0 0 0] ------- [2:0 4:0 32 0] [82] 0 0
r 68.845153667 _4_ AGT  --- 1 82 cbr 230 [5 4 3 0] ------- [2:0 4:0 29 4] [82] 2 0
s 68.979561721 _2_ AGT  --- 1 83 cbr 210 [0 0 0 0] ------- [2:0 4:0 32 0] [83] 0 0
r 68.995153667 _4_ AGT  --- 1 83 cbr 230 [5 4 3 0] ------- [2:0 4:0 29 4] [83] 2 0
s 69.147561721 _2_ AGT  --- 1 84 cbr 210 [0 0 0 0] ------- [2:0 4:0 32 0] [84] 0 0
r 69.175153667 _4_ AGT  --- 1 84 cbr 230 [5 4 3 0] ------- [2:0 4:0 29 4] [84] 2 0
s 69.315561721 _2_ AGT  --- 1 85 cbr 210 [0 0 0 0] ------- [2:0 4:0 32 0] [85] 0 0
r 69.325153667 _4_ AGT  --- 1 85 cbr 230 [5 4 3 0] ------- [2:0 4:0 29 4] [85] 2 0
s 69.483561721 _2_ AGT  --- 1 86 cbr 210 [0 0 0 0] ------- [2:0 4:0 32 0] [86] 0 0
r 69.505153667 _4_ AGT  --- 1 86 cbr 230 [5 4 3 0] ------- [2:0 4:0 29 4] [86] 2 0
s 69.651561721 _2_ AGT  --- 1 87 cbr 210 [0 0 0 0] ------- [2:0 4:0 32 0] [87] 0 0
r 69.685153667 _4_ AGT  --- 1 87 cbr 230 [5 4 3 0] ------- [2:0 4:0 29 4] [87] 2 0
s 69.819561721 _2_ AGT  --- 1 88 cbr 210 [0 0 0 0] ------- [2:0 4:0 32 0] [88] 0 0
r 69.835153667 _4_ AGT  --- 1 88 cbr 230 [5 4 3 0] ------- [2:0 4:0 29 4] [88] 2 0
s 69.987561721 _2_ AGT  --- 1 89 cbr 210 [0 0 0 0] ------- [2:0 4:0 32 0] [89] 0 0
r 70.015153667 _4_ AGT  --- 1 89 cbr 230 [5 4 3 0] ------- [2:0 4:0 29 4] [89] 2 0
s 70.155561721 _2_ AGT  --- 1 90 cbr 210 [0 0 0 0] ------- [2:0 4:0 32 0] [90] 0 0
r 70.165153667 _4_ AGT  --- 1 90 cbr 230 [5 4 3 0] ------- [2:0 4:0 29 4] [90] 2 0
s 70.323561721 _2_ AGT  --- 1 91 cbr 210 [0 0 0 0] ------- [2:0 4:0 32 0] [91] 0 0
r 70.345153667 _4_ AGT  --- 1 91 cbr 230 [5 4 3 0] ------- [2:0 4:0 29 4] [91] 2 0
s 70.491561721 _2_ AGT  --- 1 92 cbr 210 [0 0 0 0] ------- [2:0 4:0 32 0] [92] 0 0
r 70.525153667 _4_ AGT  --- 1 92 cbr 230 [5 4 3 0] ------- [2:0 4:0 29 4] [92] 2 0
s 70.659561721 _2_ AGT  --- 1 93 cbr 210 [0 0 0 0] ------- [2:0 4:0 32 0] [93] 0 0
r 70.675153667 _4_ AGT  --- 1 93 cbr 230 [5 4 3 0] ------- [2:0 4:0 29 4] [93] 2 0
s 70.827561721 _2_ AGT  --- 1 94 cbr 210 [0 0 0 0] ------- [2:0 4:0 32 0] [94] 0 0
r 70.855153667 _4_ AGT  --- 1 94 cbr 230 [5 4 3 0] ------- [2:0 4:0 29 4] [94] 2 0
s 70.995561721 _2_ AGT  --- 1 95 cbr 210 [0 0 0 0] ------- [2:0 4:0 32 0] [95] 0 0
r 71.005153667 _4_ AGT  --- 1 95 cbr 230 [5 4 3 0] ------- [2:0 4:0 29 4] [95] 2 0
s 71.163561721 _2_ AGT  --- 1 96 cbr 210 [0 0 0 0] ------- [2:0 4:0 32 0] [96] 0 0
r 71.185153667 _4_ AGT  --- 1 96 cbr 230 [5 4 3 0] ------- [2:0 4:0 29 4] [96] 2 0
s 71.331561721 _2_ AGT  --- 1 97 cbr 210 [0 0 0 0] ------- [2:0 4:0 32 0] [97] 0 0
r 71.365153667 _4_ AGT  --- 1 97 cbr 230 [5 4 3 0] ------- [2:0 4:0 29 4] [97] 2 0
s 71.499561721 _2_ AGT  --- 1 98 cbr 210 [0 0 0 0] ------- [2:0 4:0 32 0] [98] 0 0
r 71.515153667 _4_ AGT  --- 1 98 cbr 230 [5 4 3 0] ------- [2:0 4:0 29 4] [98] 2 0
s 71.667561721 _2_ AGT  --- 1 99 cbr 210 [0 0 0 0] ------- [2:0 4:0 32 0] [99] 0 0
r 71.695153667 _4_ AGT  --- 1 99 cbr 230 [5 4 3 0] ------- [2:0 4:0 29 4] [99] 2 0
s 71.835561721 _2_ AGT  --- 1 100 cbr 210 [0 0 0 0] ------- [2:0 4:0 32 0] [100] 0 0
r 71.845153667 _4_ AGT  --- 1 100 cbr 230 [5 4 3 0] ------- [2:0 4:0 29 4] [100] 2 0
s 72.003561721 _2_ AGT  --- 1 101 cbr 210 [0 0 0 0] ------- [2:0 4:0 32 0] [101] 0 0
r 72.025153667 _4_ AGT  --- 1 101 cbr 230 [5 4 3 0] ------- [2:0 4:0 29 4] [101] 2 0
s 72.171561721 _2_ AGT  --- 1 102 cbr 210 [0 0 0 0] ------- [2:0 4:0 32 0] [102] 0 0
r 72.205153667 _4_ AGT  --- 1 102 cbr 230 [5 4 3 0] ------- [2:0 4:0 29 4] [102] 2 0
s 72.339561721 _2_ AGT  --- 1 103 cbr 210 [0 0 0 0] ------- [2:0 4:0 32 0] [103] 0 0
r 72.355153667 _4_ AGT  --- 1 103 cbr 230 [5 4 3 0] ------- [2:0 4:0 29 4] [103] 2 0
s 72.507561721 _2_ AGT  --- 1 104 cbr 210 [0 0 0 0] ------- [2:0 4:0 32 0] [104] 0 0
r 72.535153667 _4_ AGT  --- 1 104 cbr 230 [5 4 3 0] ------- [2:0 4:0 29 4] [104] 2 0
s 72.675561721 _2_ AGT  --- 1 105 cbr 210 [0 0 0 0] ------- [2:0 4:0 32 0] [105] 0 0
r 72.685153667 _4_ AGT  --- 1 105 cbr 230 [5 4 3 0] ------- [2:0 4:0 29 4] [105] 2 0
s 72.843561721 _2_ AGT  --- 1 106 cbr 210 [0 0 0 0] ------- [2:0 4:0 32 0] [106] 0 0
r 72.865153667 _4_ AGT  --- 1 106 cbr 230 [5 4 3 0] ------- [2:0 4:0 29 4] [106] 2 0
s 73.011561721 _2_ AGT  --- 1 107 cbr 210 [0 0 0 0] ------- [2:0 4:0 32 0] [107] 0 0
r 73.045153667 _4_ AGT  --- 1 107 cbr 230 [5 4 3 0] ------- [2:0 4:0 29 4] [107] 2 0
s 73.179561721 _2_ AGT  --- 1 108 cbr 210 [0 0 0 0] ------- [2:0 4:0 32 0] [108] 0 0
r 73.195153667 _4_ AGT  --- 1 108 cbr 230 [5 4 3 0] ------- [2:0 4:0 29 4] [108] 2 0
s 73.347561721 _2_ AGT  --- 1 109 cbr 210 [0 0 0 0] ------- [2:0 4:0 32 0] [109] 0 0
r 73.375153667 _4_ AGT  --- 1 109 cbr 230 [5 4 3 0] ------- [2:0 4:0 29 4] [109] 2 0
s 73.515561721 _2_ AGT  --- 1 110 cbr 210 [0 0 0 0] ------- [2:0 4:0 32 0] [110] 0 0
r 73.525153667 _4_ AGT  --- 1 110 cbr 230 [5 4 3 0] ------- [2:0 4:0 29 4] [110] 2 0
s 73.683561721 _2_ AGT  --- 1 111 cbr 210 [0 0 0 0] ------- [2:0 4:0 32 0] [111] 0 0
r 73.705153667 _4_ AGT  --- 1 111 cbr 230 [5 4 3 0] ------- [2:0 4:0 29 4] [111] 2 0
s 73.851561721 _2_ AGT  --- 1 112 cbr 210 [0 0 0 0] ------- [2:0 4:0 32 0] [112] 0 0
r 73.885153667 _4_ AGT  --- 1 112 cbr 230 [5 4 3 0] ------- [2:0 4:0 29 4] [112] 2 0
s 74.019561721 _2_ AGT  --- 1 113 cbr 210 [0 0 0 0] ------- [2:0 4:0 32 0] [113] 0 0
r 74.035153667 _4_ AGT  --- 1 113 cbr 230 [5 4 3 0] ------- [2:0 4:0 29 4] [113] 2 0
s 74.187561721 _2_ AGT  --- 1 114 cbr 210 [0 0 0 0] ------- [2:0 4:0 32 0] [114] 0 0
r 74.215153667 _4_ AGT  --- 1 114 cbr 230 [5 4 3 0] ------- [2:0 4:0 29 4] [114] 2 0
s 74.355561721 _2_ AGT  --- 1 115 cbr 210 [0 0 0 0] ------- [2:0 4:0 32 0] [115] 0 0
r 74.365153667 _4_ AGT  --- 1 115 cbr 230 [5 4 3 0] ------- [2:0 4:0 29 4] [115] 2 0
s 74.523561721 _2_ AGT  --- 1 116 cbr 210 [0 0 0 0] ------- [2:0 4:0 32 0] [116] 0 0
r 74.545153667 _4_ AGT  --- 1 116 cbr 230 [5 4 3 0] ------- [2:0 4:0 29 4] [116] 2 0
s 74.691561721 _2_ AGT  --- 1 117 cbr 210 [0 0 0 0] ------- [2:0 4:0 32 0] [117] 0 0
r 74.725153667 _4_ AGT  --- 1 117 cbr 230 [5 4 3 0] ------- [2:0 4:0 29 4] [117] 2 0
s 74.859561721 _2_ AGT  --- 1 118 cbr 210 [0 0 0 0] ------- [2:0 4:0 32 0] [118] 0 0
r 74.875153667 _4_ AGT  --- 1 118 cbr 230 [5 4 3 0] ------- [2:0 4:0 29 4] [118] 2 0
s 75.027561721 _2_ AGT  --- 1 119 cbr 210 [0 0 0 0] ------- [2:0 4:0 32 0] [119] 0 0
r 75.055153667 _4_ AGT  --- 1 119 cbr 230 [5 4 3 0] ------- [2:0 4:0 29 4] [119] 2 0
s 75.195561721 _2_ AGT  --- 1 120 cbr 210 [0 0 0 0] ------- [2:0 4:0 32 0] [120] 0 0
r 75.205153667 _4_ AGT  --- 1 120 cbr 230 [5 4 3 0] ------- [2:0 4:0 29 4] [120] 2 0
s 75.363561721 _2_ AGT  --- 1 121 cbr 210 [0 0 0 0] ------- [2:0 4:0 32 0] [121] 0 0
r 75.385153667 _4_ AGT  --- 1 121 cbr 230 [5 4 3 0] ------- [2:0 4:0 29 4] [121] 2 0
s 75.531561721 _2_ AGT  --- 1 122 cbr 210 [0 0 0 0] ------- [2:0 4:0 32 0] [122] 0 0
r 75.565153667 _4_ AGT  --- 1 122 cbr 230 [5 4 3 0] ------- [2:0 4:0 29 4] [122] 2 0
s 75.699561721 _2_ AGT  --- 1 123 cbr 210 [0 0 0 0] ------- [2:0 4:0 32 0] [123] 0 0
r 75.715153667 _4_ AGT  --- 1 123 cbr 230 [5 4 3 0] ------- [2:0 4:0 29 4] [123] 2 0
s 75.867561721 _2_ AGT  --- 1 124 cbr 210 [0 0 0 0] ------- [2:0 4:0 32 0] [124] 0 0
r 75.895153667 _4_ AGT  --- 1 124 cbr 230 [5 4 3 0] ------- [2:0 4:0 29 4] [124] 2 0
s 76.035561721 _2_ AGT  --- 1 125 cbr 210 [0 0 0 0] ------- [2:0 4:0 32 0] [125] 0 0
r 76.045153667 _4_ AGT  --- 1 125 cbr 230 [5 4 3 0] ------- [2:0 4:0 29 4] [125] 2 0
s 76.203561721 _2_ AGT  --- 1 126 cbr 210 [0 0 0 0] ------- [2:0 4:0 32 0] [126] 0 0
r 76.225153667 _4_ AGT  --- 1 126 cbr 230 [5 4 3 0] ------- [2:0 4:0 29 4] [126] 2 0
s 76.371561721 _2_ AGT  --- 1 127 cbr 210 [0 0 0 0] ------- [2:0 4:0 32 0] [127] 0 0
r 76.405153667 _4_ AGT  --- 1 127 cbr 230 [5 4 3 0] ------- [2:0 4:0 29 4] [127] 2 0
s 76.539561721 _2_ AGT  --- 1 128 cbr 210 [0 0 0 0] ------- [2:0 4:0 32 0] [128] 0 0
r 76.555153667 _4_ AGT  --- 1 128 cbr 230 [5 4 3 0] ------- [2:0 4:0 29 4] [128] 2 0
s 76.707561721 _2_ AGT  --- 1 129 cbr 210 [0 0 0 0] ------- [2:0 4:0 32 0] [129] 0 0
r 76.735153667 _4_ AGT  --- 1 129 cbr 230 [5 4 3 0] ------- [2:0 4:0 29 4] [129] 2 0
s 76.875561721 _2_ AGT  --- 1 130 cbr 210 [0 0 0 0] ------- [2:0 4:0 32 0] [130] 0 0
r 76.885153667 _4_ AGT  --- 1 130 cbr 230 [5 4 3 0] ------- [2:0 4:0 29 4] [130] 2 0
s 77.043561721 _2_ AGT  --- 1 131 cbr 210 [0 0 0 0] ------- [2:0 4:0 32 0] [131] 0 0
r 77.065153667 _4_ AGT  --- 1 131 cbr 230 [5 4 3 0] ------- [2:0 4:0 29 4] [131] 2 0
s 77.211561721 _2_ AGT  --- 1 132 cbr 210 [0 0 0 0] ------- [2:0 4:0 32 0] [132] 0 0
r 77.245153667 _4_ AGT  --- 1 132 cbr 230 [5 4 3 0] ------- [2:0 4:0 29 4] [132] 2 0
s 77.379561721 _2_ AGT  --- 1 133 cbr 210 [0 0 0 0] ------- [2:0 4:0 32 0] [133] 0 0
r 77.395153667 _4_ AGT  --- 1 133 cbr 230 [5 4 3 0] ------- [2:0 4:0 29 4] [133] 2 0
s 77.547561721 _2_ AGT  --- 1 134 cbr 210 [0 0 0 0] ------- [2:0 4:0 32 0] [134] 0 0
r 77.575153667 _4_ AGT  --- 1 134 cbr 230 [5 4 3 0] ------- [2:0 4:0 29 4] [134] 2 0
s 77.715561721 _2_ AGT  --- 1 135 cbr 210 [0 0 0 0] ------- [2:0 4:0 32 0] [135] 0 0
r 77.725153667 _4_ AGT  --- 1 135 cbr 230 [5 4 3 0] ------- [2:0 4:0 29 4] [135] 2 0
s 77.883561721 _2_ AGT  --- 1 136 cbr 210 [0 0 0 0] ------- [2:0 4:0 32 0] [136] 0 0
r 77.905153667 _4_ AGT  --- 1 136 cbr 230 [5 4 3 0] ------- [2:0 4:0 29 4] [136] 2 0
s 78.051561721 _2_ AGT  --- 1 137 cbr 210 [0 0 0 0] ------- [2:0 4:0 32 0] [137] 0 0
r 78.085153667 _4_ AGT  --- 1 137 cbr 230 [5 4 3 0] ------- [2:0 4:0 29 4] [137] 2 0
s 78.219561721 _2_ AGT  --- 1 138 cbr 210 [0 0 0 0] ------- [2:0 4:0 32 0] [138] 0 0
r 78.235153667 _4_ AGT  --- 1 138 cbr 230 [5 4 3 0] ------- [2:0 4:0 29 4] [138] 2 0
s 78.387561721 _2_ AGT  --- 1 139 cbr 210 [0 0 0 0] ------- [2:0 4:0 32 0] [139] 0 0
r 78.415153667 _4_ AGT  --- 1 139 cbr 230 [5 4 3 0] ------- [2:0 4:0 29 4] [139] 2 0
s 78.555561721 _2_ AGT  --- 1 140 cbr 210 [0 0 0 0] ------- [2:0 4:0 32 0] [140] 0 0
r 78.565153667 _4_ AGT  --- 1 140 cbr 230 [5 4 3 0] ------- [2:0 4:0 29 4] [140] 2 0
s 78.723561721 _2_ AGT  --- 1 141 cbr 210 [0 0 0 0] ------- [2:0 4:0 32 0] [141] 0 0
r 78.745153667 _4_ AGT  --- 1 141 cbr 230 [5 4 3 0] ------- [2:0 4:0 29 4] [141] 2 0
s 78.891561721 _2_ AGT  --- 1 142 cbr 210 [0 0 0 0] ------- [2:0 4:0 32 0] [142] 0 0
r 78.925153667 _4_ AGT  --- 1 142 cbr 230 [5 4 3 0] ------- [2:0 4:0 29 4] [142] 2 0
s 79.059561721 _2_ AGT  --- 1 143 cbr 210 [0 0 0 0] ------- [2:0 4:0 32 0] [143] 0 0
r 79.075153667 _4_ AGT  --- 1 143 cbr 230 [5 4 3 0] ------- [2:0 4:0 29 4] [143] 2 0
s 79.227561721 _2_ AGT  --- 1 144 cbr 210 [0 0 0 0] ------- [2:0 4:0 32 0] [144] 0 0
r 79.255153667 _4_ AGT  --- 1 144 cbr 230 [5 4 3 0] ------- [2:0 4:0 29 4] [144] 2 0
s 79.395561721 _2_ AGT  --- 1 145 cbr 210 [0 0 0 0] ------- [2:0 4:0 32 0] [145] 0 0
r 79.405153667 _4_ AGT  --- 1 145 cbr 230 [5 4 3 0] ------- [2:0 4:0 29 4] [145] 2 0
s 79.563561721 _2_ AGT  --- 1 146 cbr 210 [0 0 0 0] ------- [2:0 4:0 32 0] [146] 0 0
r 79.585153667 _4_ AGT  --- 1 146 cbr 230 [5 4 3 0] ------- [2:0 4:0 29 4] [146] 2 0
s 79.731561721 _2_ AGT  --- 1 147 cbr 210 [0 0 0 0] ------- [2:0 4:0 32 0] [147] 0 0
r 79.765153667 _4_ AGT  --- 1 147 cbr 230 [5 4 3 0] ------- [2:0 4:0 29 4] [147] 2 0
s 79.899561721 _2_ AGT  --- 1 148 cbr 210 [0 0 0 0] ------- [2:0 4:0 32 0] [148] 0 0
r 79.915153667 _4_ AGT  --- 1 148 cbr 230 [5 4 3 0] ------- [2:0 4:0 29 4] [148] 2 0
s 80.067561721 _2_ AGT  --- 1 149 cbr 210 [0 0 0 0] ------- [2:0 4:0 32 0] [149] 0 0
r 80.095153667 _4_ AGT  --- 1 149 cbr 230 [5 4 3 0] ------- [2:0 4:0 29 4] [149] 2 0
s 80.235561721 _2_ AGT  --- 1 150 cbr 210 [0 0 0 0] ------- [2:0 4:0 32 0] [150] 0 0
r 80.245153667 _4_ AGT  --- 1 150 cbr 230 [5 4 3 0] ------- [2:0 4:0 29 4] [150] 2 0
s 80.403561721 _2_ AGT  --- 1 151 cbr 210 [0 0 0 0] ------- [2:0 4:0 32 0] [151] 0 0
r 80.425153667 _4_ AGT  --- 1 151 cbr 230 [5 4 3 0] ------- [2:0 4:0 29 4] [151] 2 0
s 80.571561721 _2_ AGT  --- 1 152 cbr 210 [0 0 0 0] ------- [2:0 4:0 32 0] [152] 0 0
r 80.605153667 _4_ AGT  --- 1 152 cbr 230 [5 4 3 0] ------- [2:0 4:0 29 4] [152] 2 0
s 80.739561721 _2_ AGT  --- 1 153 cbr 210 [0 0 0 0] ------- [2:0 4:0 32 0] [153] 0 0
r 80.755153667 _4_ AGT  --- 1 153 cbr 230 [5 4 3 0] ------- [2:0 4:0 29 4] [153] 2 0
s 80.907561721 _2_ AGT  --- 1 154 cbr 210 [0 0 0 0] ------- [2:0 4:0 32 0] [154] 0 0
r 80.935153667 _4_ AGT  --- 1 154 cbr 230 [5 4 3 0] ------- [2:0 4:0 29 4] [154] 2 0
s 81.075561721 _2_ AGT  --- 1 155 cbr 210 [0 0 0 0] ------- [2:0 4:0 32 0] [155] 0 0
r 81.085153667 _4_ AGT  --- 1 155 cbr 230 [5 4 3 0] ------- [2:0 4:0 29 4] [155] 2 0
s 81.243561721 _2_ AGT  --- 1 156 cbr 210 [0 0 0 0] ------- [2:0 4:0 32 0] [156] 0 0
r 81.265153667 _4_ AGT  --- 1 156 cbr 230 [5 4 3 0] ------- [2:0 4:0 29 4] [156] 2 0
s 81.411561721 _2_ AGT  --- 1 157 cbr 210 [0 0 0 0] ------- [2:0 4:0 32 0] [157] 0 0
r 81.445153667 _4_ AGT  --- 1 157 cbr 230 [5 4 3 0] ------- [2:0 4:0 29 4] [157] 2 0
s 81.579561721 _2_ AGT  --- 1 158 cbr 210 [0 0 0 0] ------- [2:0 4:0 32 0] [158] 0 0
r 81.595153667 _4_ AGT  --- 1 158 cbr 230 [5 4 3 0] ------- [2:0 4:0 29 4] [158] 2 0
s 81.747561721 _2_ AGT  --- 1 159 cbr 210 [0 0 0 0] ------- [2:0 4:0 32 0] [159] 0 0
r 81.775153667 _4_ AGT  --- 1 159 cbr 230 [5 4 3 0] ------- [2:0 4:0 29 4] [159] 2 0
s 81.915561721 _2_ AGT  --- 1 160 cbr 210 [0 0 0 0] ------- [2:0 4:0 32 0] [160] 0 0
r 81.925153667 _4_ AGT  --- 1 160 cbr 230 [5 4 3 0] ------- [2:0 4:0 29 4] [160] 2 0
s 82.083561721 _2_ AGT  --- 1 161 cbr 210 [0 0 0 0] ------- [2:0 4:0 32 0] [161] 0 0
r 82.105153667 _4_ AGT  --- 1 161 cbr 230 [5 4 3 0] ------- [2:0 4:0 29 4] [161] 2 0
s 82.251561721 _2_ AGT  --- 1 162 cbr 210 [0 0 0 0] ------- [2:0 4:0 32 0] [162] 0 0
r 82.285153667 _4_ AGT  --- 1 162 cbr 230 [5 4 3 0] ------- [2:0 4:0 29 4] [162] 2 0
s 82.419561721 _2_ AGT  --- 1 163 cbr 210 [0 0 0 0] ------- [2:0 4:0 32 0] [163] 0 0
r 82.435153667 _4_ AGT  --- 1 163 cbr 230 [5 4 3 0] ------- [2:0 4:0 29 4] [163] 2 0
s 82.587561721 _2_ AGT  --- 1 164 cbr 210 [0 0 0 0] ------- [2:0 4:0 32 0] [164] 0 0
r 82.615153667 _4_ AGT  --- 1 164 cbr 230 [5 4 3 0] ------- [2:0 4:0 29 4] [164] 2 0
