n -t * -s 0  -x 50 -y 50 -Z 0 -z 10  -v circle -c black
n -t * -s 1  -x 50 -y 250 -Z 0 -z 10  -v circle -c black
n -t * -s 2  -x 50 -y 450 -Z 0 -z 10  -v circle -c black
n -t * -s 3  -x 50 -y 650 -Z 0 -z 10  -v circle -c black
n -t * -s 4  -x 50 -y 850 -Z 0 -z 10  -v circle -c black
n -t * -s 5  -x 250 -y 50 -Z 0 -z 10  -v circle -c black
n -t * -s 6  -x 250 -y 250 -Z 0 -z 10  -v circle -c black
n -t * -s 7  -x 250 -y 450 -Z 0 -z 10  -v circle -c black
n -t * -s 8  -x 250 -y 650 -Z 0 -z 10  -v circle -c black
n -t * -s 9  -x 250 -y 850 -Z 0 -z 10  -v circle -c black
n -t * -s 10  -x 450 -y 50 -Z 0 -z 10  -v circle -c black
n -t * -s 11  -x 450 -y 250 -Z 0 -z 10  -v circle -c black
n -t * -s 12  -x 450 -y 450 -Z 0 -z 10  -v circle -c black
n -t * -s 13  -x 450 -y 650 -Z 0 -z 10  -v circle -c black
n -t * -s 14  -x 450 -y 850 -Z 0 -z 10  -v circle -c black
n -t * -s 15  -x 650 -y 50 -Z 0 -z 10  -v circle -c black
n -t * -s 16  -x 650 -y 250 -Z 0 -z 10  -v circle -c black
n -t * -s 17  -x 650 -y 450 -Z 0 -z 10  -v circle -c black
n -t * -s 18  -x 650 -y 650 -Z 0 -z 10  -v circle -c black
n -t * -s 19  -x 650 -y 850 -Z 0 -z 10  -v circle -c black
n -t * -s 20  -x 850 -y 50 -Z 0 -z 10  -v circle -c black
n -t * -s 21  -x 850 -y 250 -Z 0 -z 10  -v circle -c black
n -t * -s 22  -x 850 -y 450 -Z 0 -z 10  -v circle -c black
n -t * -s 23  -x 850 -y 650 -Z 0 -z 10  -v circle -c black
n -t * -s 24  -x 850 -y 850 -Z 0 -z 10  -v circle -c black
V -t * -v 1.0a5 -a 0
W -t * -x 1000 -y 1000
A -t * -n 1 -p 0 -o 0x7fffffff -c 30 -a 1
A -t * -h 1 -m 1073741823 -s 0
+ -t 32.185638571 -s 4 -d -1 -p cbr -e 210 -c 2 -a 0 -i 0 -k AGT 
- -t 32.185638571 -s 4 -d -1 -p cbr -e 210 -c 2 -a 0 -i 0 -k AGT
h -t 32.185638571 -s 4 -d -1 -p cbr -e 210 -c 2 -a 0 -i 0 -k AGT
+ -t 32.196838571 -s 4 -d -1 -p cbr -e 210 -c 2 -a 0 -i 1 -k AGT 
- -t 32.196838571 -s 4 -d -1 -p cbr -e 210 -c 2 -a 0 -i 1 -k AGT
h -t 32.196838571 -s 4 -d -1 -p cbr -e 210 -c 2 -a 0 -i 1 -k AGT
+ -t 32.208038571 -s 4 -d -1 -p cbr -e 210 -c 2 -a 0 -i 2 -k AGT 
- -t 32.208038571 -s 4 -d -1 -p cbr -e 210 -c 2 -a 0 -i 2 -k AGT
h -t 32.208038571 -s 4 -d -1 -p cbr -e 210 -c 2 -a 0 -i 2 -k AGT
+ -t 32.219238571 -s 4 -d -1 -p cbr -e 210 -c 2 -a 0 -i 3 -k AGT 
- -t 32.219238571 -s 4 -d -1 -p cbr -e 210 -c 2 -a 0 -i 3 -k AGT
h -t 32.219238571 -s 4 -d -1 -p cbr -e 210 -c 2 -a 0 -i 3 -k AGT
+ -t 32.230438571 -s 4 -d -1 -p cbr -e 210 -c 2 -a 0 -i 4 -k AGT 
- -t 32.230438571 -s 4 -d -1 -p cbr -e 210 -c 2 -a 0 -i 4 -k AGT
h -t 32.230438571 -s 4 -d -1 -p cbr -e 210 -c 2 -a 0 -i 4 -k AGT
+ -t 32.241638571 -s 4 -d -1 -p cbr -e 210 -c 2 -a 0 -i 5 -k AGT 
- -t 32.241638571 -s 4 -d -1 -p cbr -e 210 -c 2 -a 0 -i 5 -k AGT
h -t 32.241638571 -s 4 -d -1 -p cbr -e 210 -c 2 -a 0 -i 5 -k AGT
+ -t 32.252838571 -s 4 -d -1 -p cbr -e 210 -c 2 -a 0 -i 6 -k AGT 
- -t 32.252838571 -s 4 -d -1 -p cbr -e 210 -c 2 -a 0 -i 6 -k AGT
h -t 32.252838571 -s 4 -d -1 -p cbr -e 210 -c 2 -a 0 -i 6 -k AGT
+ -t 32.264038571 -s 4 -d -1 -p cbr -e 210 -c 2 -a 0 -i 7 -k AGT 
- -t 32.264038571 -s 4 -d -1 -p cbr -e 210 -c 2 -a 0 -i 7 -k AGT
h -t 32.264038571 -s 4 -d -1 -p cbr -e 210 -c 2 -a 0 -i 7 -k AGT
+ -t 32.275238571 -s 4 -d -1 -p cbr -e 210 -c 2 -a 0 -i 8 -k AGT 
- -t 32.275238571 -s 4 -d -1 -p cbr -e 210 -c 2 -a 0 -i 8 -k AGT
h -t 32.275238571 -s 4 -d -1 -p cbr -e 210 -c 2 -a 0 -i 8 -k AGT
+ -t 32.286438571 -s 4 -d -1 -p cbr -e 210 -c 2 -a 0 -i 9 -k AGT 
- -t 32.286438571 -s 4 -d -1 -p cbr -e 210 -c 2 -a 0 -i 9 -k AGT
h -t 32.286438571 -s 4 -d -1 -p cbr -e 210 -c 2 -a 0 -i 9 -k AGT
+ -t 32.297638571 -s 4 -d -1 -p cbr -e 210 -c 2 -a 0 -i 10 -k AGT 
- -t 32.297638571 -s 4 -d -1 -p cbr -e 210 -c 2 -a 0 -i 10 -k AGT
h -t 32.297638571 -s 4 -d -1 -p cbr -e 210 -c 2 -a 0 -i 10 -k AGT
+ -t 32.308838571 -s 4 -d -1 -p cbr -e 210 -c 2 -a 0 -i 11 -k AGT 
- -t 32.308838571 -s 4 -d -1 -p cbr -e 210 -c 2 -a 0 -i 11 -k AGT
h -t 32.308838571 -s 4 -d -1 -p cbr -e 210 -c 2 -a 0 -i 11 -k AGT
+ -t 32.320038571 -s 4 -d -1 -p cbr -e 210 -c 2 -a 0 -i 12 -k AGT 
- -t 32.320038571 -s 4 -d -1 -p cbr -e 210 -c 2 -a 0 -i 12 -k AGT
h -t 32.320038571 -s 4 -d -1 -p cbr -e 210 -c 2 -a 0 -i 12 -k AGT
+ -t 32.331238571 -s 4 -d -1 -p cbr -e 210 -c 2 -a 0 -i 13 -k AGT 
- -t 32.331238571 -s 4 -d -1 -p cbr -e 210 -c 2 -a 0 -i 13 -k AGT
h -t 32.331238571 -s 4 -d -1 -p cbr -e 210 -c 2 -a 0 -i 13 -k AGT
+ -t 32.342438571 -s 4 -d -1 -p cbr -e 210 -c 2 -a 0 -i 14 -k AGT 
- -t 32.342438571 -s 4 -d -1 -p cbr -e 210 -c 2 -a 0 -i 14 -k AGT
h -t 32.342438571 -s 4 -d -1 -p cbr -e 210 -c 2 -a 0 -i 14 -k AGT
+ -t 32.353638571 -s 4 -d -1 -p cbr -e 210 -c 2 -a 0 -i 15 -k AGT 
- -t 32.353638571 -s 4 -d -1 -p cbr -e 210 -c 2 -a 0 -i 15 -k AGT
h -t 32.353638571 -s 4 -d -1 -p cbr -e 210 -c 2 -a 0 -i 15 -k AGT
+ -t 32.364838571 -s 4 -d -1 -p cbr -e 210 -c 2 -a 0 -i 16 -k AGT 
- -t 32.364838571 -s 4 -d -1 -p cbr -e 210 -c 2 -a 0 -i 16 -k AGT
h -t 32.364838571 -s 4 -d -1 -p cbr -e 210 -c 2 -a 0 -i 16 -k AGT
+ -t 32.376038571 -s 4 -d -1 -p cbr -e 210 -c 2 -a 0 -i 17 -k AGT 
- -t 32.376038571 -s 4 -d -1 -p cbr -e 210 -c 2 -a 0 -i 17 -k AGT
h -t 32.376038571 -s 4 -d -1 -p cbr -e 210 -c 2 -a 0 -i 17 -k AGT
+ -t 32.387238571 -s 4 -d -1 -p cbr -e 210 -c 2 -a 0 -i 18 -k AGT 
- -t 32.387238571 -s 4 -d -1 -p cbr -e 210 -c 2 -a 0 -i 18 -k AGT
h -t 32.387238571 -s 4 -d -1 -p cbr -e 210 -c 2 -a 0 -i 18 -k AGT
+ -t 32.398438571 -s 4 -d -1 -p cbr -e 210 -c 2 -a 0 -i 19 -k AGT 
- -t 32.398438571 -s 4 -d -1 -p cbr -e 210 -c 2 -a 0 -i 19 -k AGT
h -t 32.398438571 -s 4 -d -1 -p cbr -e 210 -c 2 -a 0 -i 19 -k AGT
+ -t 32.409638571 -s 4 -d -1 -p cbr -e 210 -c 2 -a 0 -i 20 -k AGT 
- -t 32.409638571 -s 4 -d -1 -p cbr -e 210 -c 2 -a 0 -i 20 -k AGT
h -t 32.409638571 -s 4 -d -1 -p cbr -e 210 -c 2 -a 0 -i 20 -k AGT
+ -t 32.420838571 -s 4 -d -1 -p cbr -e 210 -c 2 -a 0 -i 21 -k AGT 
- -t 32.420838571 -s 4 -d -1 -p cbr -e 210 -c 2 -a 0 -i 21 -k AGT
h -t 32.420838571 -s 4 -d -1 -p cbr -e 210 -c 2 -a 0 -i 21 -k AGT
+ -t 32.432038571 -s 4 -d -1 -p cbr -e 210 -c 2 -a 0 -i 22 -k AGT 
- -t 32.432038571 -s 4 -d -1 -p cbr -e 210 -c 2 -a 0 -i 22 -k AGT
h -t 32.432038571 -s 4 -d -1 -p cbr -e 210 -c 2 -a 0 -i 22 -k AGT
+ -t 32.443238571 -s 4 -d -1 -p cbr -e 210 -c 2 -a 0 -i 23 -k AGT 
- -t 32.443238571 -s 4 -d -1 -p cbr -e 210 -c 2 -a 0 -i 23 -k AGT
h -t 32.443238571 -s 4 -d -1 -p cbr -e 210 -c 2 -a 0 -i 23 -k AGT
+ -t 32.454438571 -s 4 -d -1 -p cbr -e 210 -c 2 -a 0 -i 24 -k AGT 
- -t 32.454438571 -s 4 -d -1 -p cbr -e 210 -c 2 -a 0 -i 24 -k AGT
h -t 32.454438571 -s 4 -d -1 -p cbr -e 210 -c 2 -a 0 -i 24 -k AGT
+ -t 32.465638571 -s 4 -d -1 -p cbr -e 210 -c 2 -a 0 -i 25 -k AGT 
- -t 32.465638571 -s 4 -d -1 -p cbr -e 210 -c 2 -a 0 -i 25 -k AGT
h -t 32.465638571 -s 4 -d -1 -p cbr -e 210 -c 2 -a 0 -i 25 -k AGT
+ -t 32.476838571 -s 4 -d -1 -p cbr -e 210 -c 2 -a 0 -i 26 -k AGT 
- -t 32.476838571 -s 4 -d -1 -p cbr -e 210 -c 2 -a 0 -i 26 -k AGT
h -t 32.476838571 -s 4 -d -1 -p cbr -e 210 -c 2 -a 0 -i 26 -k AGT
+ -t 32.488038571 -s 4 -d -1 -p cbr -e 210 -c 2 -a 0 -i 27 -k AGT 
- -t 32.488038571 -s 4 -d -1 -p cbr -e 210 -c 2 -a 0 -i 27 -k AGT
h -t 32.488038571 -s 4 -d -1 -p cbr -e 210 -c 2 -a 0 -i 27 -k AGT
+ -t 32.499238571 -s 4 -d -1 -p cbr -e 210 -c 2 -a 0 -i 28 -k AGT 
- -t 32.499238571 -s 4 -d -1 -p cbr -e 210 -c 2 -a 0 -i 28 -k AGT
h -t 32.499238571 -s 4 -d -1 -p cbr -e 210 -c 2 -a 0 -i 28 -k AGT
+ -t 32.510438571 -s 4 -d -1 -p cbr -e 210 -c 2 -a 0 -i 29 -k AGT 
- -t 32.510438571 -s 4 -d -1 -p cbr -e 210 -c 2 -a 0 -i 29 -k AGT
h -t 32.510438571 -s 4 -d -1 -p cbr -e 210 -c 2 -a 0 -i 29 -k AGT
+ -t 32.521638571 -s 4 -d -1 -p cbr -e 210 -c 2 -a 0 -i 30 -k AGT 
- -t 32.521638571 -s 4 -d -1 -p cbr -e 210 -c 2 -a 0 -i 30 -k AGT
h -t 32.521638571 -s 4 -d -1 -p cbr -e 210 -c 2 -a 0 -i 30 -k AGT
+ -t 32.532838571 -s 4 -d -1 -p cbr -e 210 -c 2 -a 0 -i 31 -k AGT 
- -t 32.532838571 -s 4 -d -1 -p cbr -e 210 -c 2 -a 0 -i 31 -k AGT
h -t 32.532838571 -s 4 -d -1 -p cbr -e 210 -c 2 -a 0 -i 31 -k AGT
+ -t 32.544038571 -s 4 -d -1 -p cbr -e 210 -c 2 -a 0 -i 32 -k AGT 
- -t 32.544038571 -s 4 -d -1 -p cbr -e 210 -c 2 -a 0 -i 32 -k AGT
h -t 32.544038571 -s 4 -d -1 -p cbr -e 210 -c 2 -a 0 -i 32 -k AGT
+ -t 32.555238571 -s 4 -d -1 -p cbr -e 210 -c 2 -a 0 -i 33 -k AGT 
- -t 32.555238571 -s 4 -d -1 -p cbr -e 210 -c 2 -a 0 -i 33 -k AGT
h -t 32.555238571 -s 4 -d -1 -p cbr -e 210 -c 2 -a 0 -i 33 -k AGT
+ -t 32.566438571 -s 4 -d -1 -p cbr -e 210 -c 2 -a 0 -i 34 -k AGT 
- -t 32.566438571 -s 4 -d -1 -p cbr -e 210 -c 2 -a 0 -i 34 -k AGT
h -t 32.566438571 -s 4 -d -1 -p cbr -e 210 -c 2 -a 0 -i 34 -k AGT
r -t 32.575153667 -s 3 -d 3 -p cbr -e 230 -c 2 -a 0 -i 0 -k AGT
+ -t 32.577638571 -s 4 -d -1 -p cbr -e 210 -c 2 -a 0 -i 35 -k AGT 
- -t 32.577638571 -s 4 -d -1 -p cbr -e 210 -c 2 -a 0 -i 35 -k AGT
h -t 32.577638571 -s 4 -d -1 -p cbr -e 210 -c 2 -a 0 -i 35 -k AGT
r -t 32.581153667 -s 3 -d 3 -p cbr -e 230 -c 2 -a 0 -i 1 -k AGT
+ -t 32.588838571 -s 4 -d -1 -p cbr -e 210 -c 2 -a 0 -i 36 -k AGT 
- -t 32.588838571 -s 4 -d -1 -p cbr -e 210 -c 2 -a 0 -i 36 -k AGT
h -t 32.588838571 -s 4 -d -1 -p cbr -e 210 -c 2 -a 0 -i 36 -k AGT
+ -t 32.600038571 -s 4 -d -1 -p cbr -e 210 -c 2 -a 0 -i 37 -k AGT 
- -t 32.600038571 -s 4 -d -1 -p cbr -e 210 -c 2 -a 0 -i 37 -k AGT
h -t 32.600038571 -s 4 -d -1 -p cbr -e 210 -c 2 -a 0 -i 37 -k AGT
+ -t 32.611238571 -s 4 -d -1 -p cbr -e 210 -c 2 -a 0 -i 38 -k AGT 
- -t 32.611238571 -s 4 -d -1 -p cbr -e 210 -c 2 -a 0 -i 38 -k AGT
h -t 32.611238571 -s 4 -d -1 -p cbr -e 210 -c 2 -a 0 -i 38 -k AGT
+ -t 32.622438571 -s 4 -d -1 -p cbr -e 210 -c 2 -a 0 -i 39 -k AGT 
- -t 32.622438571 -s 4 -d -1 -p cbr -e 210 -c 2 -a 0 -i 39 -k AGT
h -t 32.622438571 -s 4 -d -1 -p cbr -e 210 -c 2 -a 0 -i 39 -k AGT
+ -t 32.633638571 -s 4 -d -1 -p cbr -e 210 -c 2 -a 0 -i 40 -k AGT 
- -t 32.633638571 -s 4 -d -1 -p cbr -e 210 -c 2 -a 0 -i 40 -k AGT
h -t 32.633638571 -s 4 -d -1 -p cbr -e 210 -c 2 -a 0 -i 40 -k AGT
r -t 32.635153667 -s 3 -d 3 -p cbr -e 230 -c 2 -a 0 -i 32 -k AGT
r -t 32.641153667 -s 3 -d 3 -p cbr -e 230 -c 2 -a 0 -i 2 -k AGT
+ -t 32.644838571 -s 4 -d -1 -p cbr -e 210 -c 2 -a 0 -i 41 -k AGT 
- -t 32.644838571 -s 4 -d -1 -p cbr -e 210 -c 2 -a 0 -i 41 -k AGT
h -t 32.644838571 -s 4 -d -1 -p cbr -e 210 -c 2 -a 0 -i 41 -k AGT
+ -t 32.656038571 -s 4 -d -1 -p cbr -e 210 -c 2 -a 0 -i 42 -k AGT 
- -t 32.656038571 -s 4 -d -1 -p cbr -e 210 -c 2 -a 0 -i 42 -k AGT
h -t 32.656038571 -s 4 -d -1 -p cbr -e 210 -c 2 -a 0 -i 42 -k AGT
+ -t 32.667238571 -s 4 -d -1 -p cbr -e 210 -c 2 -a 0 -i 43 -k AGT 
- -t 32.667238571 -s 4 -d -1 -p cbr -e 210 -c 2 -a 0 -i 43 -k AGT
h -t 32.667238571 -s 4 -d -1 -p cbr -e 210 -c 2 -a 0 -i 43 -k AGT
+ -t 32.678438571 -s 4 -d -1 -p cbr -e 210 -c 2 -a 0 -i 44 -k AGT 
- -t 32.678438571 -s 4 -d -1 -p cbr -e 210 -c 2 -a 0 -i 44 -k AGT
h -t 32.678438571 -s 4 -d -1 -p cbr -e 210 -c 2 -a 0 -i 44 -k AGT
+ -t 32.689638571 -s 4 -d -1 -p cbr -e 210 -c 2 -a 0 -i 45 -k AGT 
- -t 32.689638571 -s 4 -d -1 -p cbr -e 210 -c 2 -a 0 -i 45 -k AGT
h -t 32.689638571 -s 4 -d -1 -p cbr -e 210 -c 2 -a 0 -i 45 -k AGT
r -t 32.695153667 -s 3 -d 3 -p cbr -e 230 -c 2 -a 0 -i 33 -k AGT
+ -t 32.700838571 -s 4 -d -1 -p cbr -e 210 -c 2 -a 0 -i 46 -k AGT 
- -t 32.700838571 -s 4 -d -1 -p cbr -e 210 -c 2 -a 0 -i 46 -k AGT
h -t 32.700838571 -s 4 -d -1 -p cbr -e 210 -c 2 -a 0 -i 46 -k AGT
r -t 32.701153667 -s 3 -d 3 -p cbr -e 230 -c 2 -a 0 -i 3 -k AGT
+ -t 32.712038571 -s 4 -d -1 -p cbr -e 210 -c 2 -a 0 -i 47 -k AGT 
- -t 32.712038571 -s 4 -d -1 -p cbr -e 210 -c 2 -a 0 -i 47 -k AGT
h -t 32.712038571 -s 4 -d -1 -p cbr -e 210 -c 2 -a 0 -i 47 -k AGT
+ -t 32.723238571 -s 4 -d -1 -p cbr -e 210 -c 2 -a 0 -i 48 -k AGT 
- -t 32.723238571 -s 4 -d -1 -p cbr -e 210 -c 2 -a 0 -i 48 -k AGT
h -t 32.723238571 -s 4 -d -1 -p cbr -e 210 -c 2 -a 0 -i 48 -k AGT
+ -t 32.734438571 -s 4 -d -1 -p cbr -e 210 -c 2 -a 0 -i 49 -k AGT 
- -t 32.734438571 -s 4 -d -1 -p cbr -e 210 -c 2 -a 0 -i 49 -k AGT
h -t 32.734438571 -s 4 -d -1 -p cbr -e 210 -c 2 -a 0 -i 49 -k AGT
+ -t 32.745638571 -s 4 -d -1 -p cbr -e 210 -c 2 -a 0 -i 50 -k AGT 
- -t 32.745638571 -s 4 -d -1 -p cbr -e 210 -c 2 -a 0 -i 50 -k AGT
h -t 32.745638571 -s 4 -d -1 -p cbr -e 210 -c 2 -a 0 -i 50 -k AGT
r -t 32.755153667 -s 3 -d 3 -p cbr -e 230 -c 2 -a 0 -i 34 -k AGT
+ -t 32.756838571 -s 4 -d -1 -p cbr -e 210 -c 2 -a 0 -i 51 -k AGT 
- -t 32.756838571 -s 4 -d -1 -p cbr -e 210 -c 2 -a 0 -i 51 -k AGT
h -t 32.756838571 -s 4 -d -1 -p cbr -e 210 -c 2 -a 0 -i 51 -k AGT
r -t 32.761153667 -s 3 -d 3 -p cbr -e 230 -c 2 -a 0 -i 4 -k AGT
+ -t 32.768038571 -s 4 -d -1 -p cbr -e 210 -c 2 -a 0 -i 52 -k AGT 
- -t 32.768038571 -s 4 -d -1 -p cbr -e 210 -c 2 -a 0 -i 52 -k AGT
h -t 32.768038571 -s 4 -d -1 -p cbr -e 210 -c 2 -a 0 -i 52 -k AGT
+ -t 32.779238571 -s 4 -d -1 -p cbr -e 210 -c 2 -a 0 -i 53 -k AGT 
- -t 32.779238571 -s 4 -d -1 -p cbr -e 210 -c 2 -a 0 -i 53 -k AGT
h -t 32.779238571 -s 4 -d -1 -p cbr -e 210 -c 2 -a 0 -i 53 -k AGT
+ -t 32.790438571 -s 4 -d -1 -p cbr -e 210 -c 2 -a 0 -i 54 -k AGT 
- -t 32.790438571 -s 4 -d -1 -p cbr -e 210 -c 2 -a 0 -i 54 -k AGT
h -t 32.790438571 -s 4 -d -1 -p cbr -e 210 -c 2 -a 0 -i 54 -k AGT
+ -t 32.801638571 -s 4 -d -1 -p cbr -e 210 -c 2 -a 0 -i 55 -k AGT 
- -t 32.801638571 -s 4 -d -1 -p cbr -e 210 -c 2 -a 0 -i 55 -k AGT
h -t 32.801638571 -s 4 -d -1 -p cbr -e 210 -c 2 -a 0 -i 55 -k AGT
+ -t 32.812838571 -s 4 -d -1 -p cbr -e 210 -c 2 -a 0 -i 56 -k AGT 
- -t 32.812838571 -s 4 -d -1 -p cbr -e 210 -c 2 -a 0 -i 56 -k AGT
h -t 32.812838571 -s 4 -d -1 -p cbr -e 210 -c 2 -a 0 -i 56 -k AGT
r -t 32.815153667 -s 3 -d 3 -p cbr -e 230 -c 2 -a 0 -i 35 -k AGT
r -t 32.821153667 -s 3 -d 3 -p cbr -e 230 -c 2 -a 0 -i 5 -k AGT
+ -t 32.824038571 -s 4 -d -1 -p cbr -e 210 -c 2 -a 0 -i 57 -k AGT 
- -t 32.824038571 -s 4 -d -1 -p cbr -e 210 -c 2 -a 0 -i 57 -k AGT
h -t 32.824038571 -s 4 -d -1 -p cbr -e 210 -c 2 -a 0 -i 57 -k AGT
+ -t 32.835238571 -s 4 -d -1 -p cbr -e 210 -c 2 -a 0 -i 58 -k AGT 
- -t 32.835238571 -s 4 -d -1 -p cbr -e 210 -c 2 -a 0 -i 58 -k AGT
h -t 32.835238571 -s 4 -d -1 -p cbr -e 210 -c 2 -a 0 -i 58 -k AGT
+ -t 32.846438571 -s 4 -d -1 -p cbr -e 210 -c 2 -a 0 -i 59 -k AGT 
- -t 32.846438571 -s 4 -d -1 -p cbr -e 210 -c 2 -a 0 -i 59 -k AGT
h -t 32.846438571 -s 4 -d -1 -p cbr -e 210 -c 2 -a 0 -i 59 -k AGT
+ -t 32.857638571 -s 4 -d -1 -p cbr -e 210 -c 2 -a 0 -i 60 -k AGT 
- -t 32.857638571 -s 4 -d -1 -p cbr -e 210 -c 2 -a 0 -i 60 -k AGT
h -t 32.857638571 -s 4 -d -1 -p cbr -e 210 -c 2 -a 0 -i 60 -k AGT
+ -t 32.868838571 -s 4 -d -1 -p cbr -e 210 -c 2 -a 0 -i 61 -k AGT 
- -t 32.868838571 -s 4 -d -1 -p cbr -e 210 -c 2 -a 0 -i 61 -k AGT
h -t 32.868838571 -s 4 -d -1 -p cbr -e 210 -c 2 -a 0 -i 61 -k AGT
r -t 32.875153667 -s 3 -d 3 -p cbr -e 230 -c 2 -a 0 -i 36 -k AGT
+ -t 32.880038571 -s 4 -d -1 -p cbr -e 210 -c 2 -a 0 -i 62 -k AGT 
- -t 32.880038571 -s 4 -d -1 -p cbr -e 210 -c 2 -a 0 -i 62 -k AGT
h -t 32.880038571 -s 4 -d -1 -p cbr -e 210 -c 2 -a 0 -i 62 -k AGT
r -t 32.881153667 -s 3 -d 3 -p cbr -e 230 -c 2 -a 0 -i 6 -k AGT
+ -t 32.891238571 -s 4 -d -1 -p cbr -e 210 -c 2 -a 0 -i 63 -k AGT 
- -t 32.891238571 -s 4 -d -1 -p cbr -e 210 -c 2 -a 0 -i 63 -k AGT
h -t 32.891238571 -s 4 -d -1 -p cbr -e 210 -c 2 -a 0 -i 63 -k AGT
+ -t 32.902438571 -s 4 -d -1 -p cbr -e 210 -c 2 -a 0 -i 64 -k AGT 
- -t 32.902438571 -s 4 -d -1 -p cbr -e 210 -c 2 -a 0 -i 64 -k AGT
h -t 32.902438571 -s 4 -d -1 -p cbr -e 210 -c 2 -a 0 -i 64 -k AGT
+ -t 32.913638571 -s 4 -d -1 -p cbr -e 210 -c 2 -a 0 -i 65 -k AGT 
- -t 32.913638571 -s 4 -d -1 -p cbr -e 210 -c 2 -a 0 -i 65 -k AGT
h -t 32.913638571 -s 4 -d -1 -p cbr -e 210 -c 2 -a 0 -i 65 -k AGT
+ -t 32.924838571 -s 4 -d -1 -p cbr -e 210 -c 2 -a 0 -i 66 -k AGT 
- -t 32.924838571 -s 4 -d -1 -p cbr -e 210 -c 2 -a 0 -i 66 -k AGT
h -t 32.924838571 -s 4 -d -1 -p cbr -e 210 -c 2 -a 0 -i 66 -k AGT
r -t 32.935153667 -s 3 -d 3 -p cbr -e 230 -c 2 -a 0 -i 37 -k AGT
+ -t 32.936038571 -s 4 -d -1 -p cbr -e 210 -c 2 -a 0 -i 67 -k AGT 
- -t 32.936038571 -s 4 -d -1 -p cbr -e 210 -c 2 -a 0 -i 67 -k AGT
h -t 32.936038571 -s 4 -d -1 -p cbr -e 210 -c 2 -a 0 -i 67 -k AGT
r -t 32.941153667 -s 3 -d 3 -p cbr -e 230 -c 2 -a 0 -i 7 -k AGT
+ -t 32.947238571 -s 4 -d -1 -p cbr -e 210 -c 2 -a 0 -i 68 -k AGT 
- -t 32.947238571 -s 4 -d -1 -p cbr -e 210 -c 2 -a 0 -i 68 -k AGT
h -t 32.947238571 -s 4 -d -1 -p cbr -e 210 -c 2 -a 0 -i 68 -k AGT
+ -t 32.958438571 -s 4 -d -1 -p cbr -e 210 -c 2 -a 0 -i 69 -k AGT 
- -t 32.958438571 -s 4 -d -1 -p cbr -e 210 -c 2 -a 0 -i 69 -k AGT
h -t 32.958438571 -s 4 -d -1 -p cbr -e 210 -c 2 -a 0 -i 69 -k AGT
+ -t 32.969638571 -s 4 -d -1 -p cbr -e 210 -c 2 -a 0 -i 70 -k AGT 
- -t 32.969638571 -s 4 -d -1 -p cbr -e 210 -c 2 -a 0 -i 70 -k AGT
h -t 32.969638571 -s 4 -d -1 -p cbr -e 210 -c 2 -a 0 -i 70 -k AGT
+ -t 32.980838571 -s 4 -d -1 -p cbr -e 210 -c 2 -a 0 -i 71 -k AGT 
- -t 32.980838571 -s 4 -d -1 -p cbr -e 210 -c 2 -a 0 -i 71 -k AGT
h -t 32.980838571 -s 4 -d -1 -p cbr -e 210 -c 2 -a 0 -i 71 -k AGT
+ -t 32.992038571 -s 4 -d -1 -p cbr -e 210 -c 2 -a 0 -i 72 -k AGT 
- -t 32.992038571 -s 4 -d -1 -p cbr -e 210 -c 2 -a 0 -i 72 -k AGT
h -t 32.992038571 -s 4 -d -1 -p cbr -e 210 -c 2 -a 0 -i 72 -k AGT
r -t 32.995153667 -s 3 -d 3 -p cbr -e 230 -c 2 -a 0 -i 38 -k AGT
r -t 33.001153667 -s 3 -d 3 -p cbr -e 230 -c 2 -a 0 -i 8 -k AGT
+ -t 33.003238571 -s 4 -d -1 -p cbr -e 210 -c 2 -a 0 -i 73 -k AGT 
- -t 33.003238571 -s 4 -d -1 -p cbr -e 210 -c 2 -a 0 -i 73 -k AGT
h -t 33.003238571 -s 4 -d -1 -p cbr -e 210 -c 2 -a 0 -i 73 -k AGT
+ -t 33.014438571 -s 4 -d -1 -p cbr -e 210 -c 2 -a 0 -i 74 -k AGT 
- -t 33.014438571 -s 4 -d -1 -p cbr -e 210 -c 2 -a 0 -i 74 -k AGT
h -t 33.014438571 -s 4 -d -1 -p cbr -e 210 -c 2 -a 0 -i 74 -k AGT
+ -t 33.025638571 -s 4 -d -1 -p cbr -e 210 -c 2 -a 0 -i 75 -k AGT 
- -t 33.025638571 -s 4 -d -1 -p cbr -e 210 -c 2 -a 0 -i 75 -k AGT
h -t 33.025638571 -s 4 -d -1 -p cbr -e 210 -c 2 -a 0 -i 75 -k AGT
+ -t 33.036838571 -s 4 -d -1 -p cbr -e 210 -c 2 -a 0 -i 76 -k AGT 
- -t 33.036838571 -s 4 -d -1 -p cbr -e 210 -c 2 -a 0 -i 76 -k AGT
h -t 33.036838571 -s 4 -d -1 -p cbr -e 210 -c 2 -a 0 -i 76 -k AGT
+ -t 33.048038571 -s 4 -d -1 -p cbr -e 210 -c 2 -a 0 -i 77 -k AGT 
- -t 33.048038571 -s 4 -d -1 -p cbr -e 210 -c 2 -a 0 -i 77 -k AGT
h -t 33.048038571 -s 4 -d -1 -p cbr -e 210 -c 2 -a 0 -i 77 -k AGT
r -t 33.055153667 -s 3 -d 3 -p cbr -e 230 -c 2 -a 0 -i 39 -k AGT
+ -t 33.059238571 -s 4 -d -1 -p cbr -e 210 -c 2 -a 0 -i 78 -k AGT 
- -t 33.059238571 -s 4 -d -1 -p cbr -e 210 -c 2 -a 0 -i 78 -k AGT
h -t 33.059238571 -s 4 -d -1 -p cbr -e 210 -c 2 -a 0 -i 78 -k AGT
r -t 33.061153667 -s 3 -d 3 -p cbr -e 230 -c 2 -a 0 -i 9 -k AGT
+ -t 33.070438571 -s 4 -d -1 -p cbr -e 210 -c 2 -a 0 -i 79 -k AGT 
- -t 33.070438571 -s 4 -d -1 -p cbr -e 210 -c 2 -a 0 -i 79 -k AGT
h -t 33.070438571 -s 4 -d -1 -p cbr -e 210 -c 2 -a 0 -i 79 -k AGT
+ -t 33.081638571 -s 4 -d -1 -p cbr -e 210 -c 2 -a 0 -i 80 -k AGT 
- -t 33.081638571 -s 4 -d -1 -p cbr -e 210 -c 2 -a 0 -i 80 -k AGT
h -t 33.081638571 -s 4 -d -1 -p cbr -e 210 -c 2 -a 0 -i 80 -k AGT
+ -t 33.092838571 -s 4 -d -1 -p cbr -e 210 -c 2 -a 0 -i 81 -k AGT 
- -t 33.092838571 -s 4 -d -1 -p cbr -e 210 -c 2 -a 0 -i 81 -k AGT
h -t 33.092838571 -s 4 -d -1 -p cbr -e 210 -c 2 -a 0 -i 81 -k AGT
+ -t 33.104038571 -s 4 -d -1 -p cbr -e 210 -c 2 -a 0 -i 82 -k AGT 
- -t 33.104038571 -s 4 -d -1 -p cbr -e 210 -c 2 -a 0 -i 82 -k AGT
h -t 33.104038571 -s 4 -d -1 -p cbr -e 210 -c 2 -a 0 -i 82 -k AGT
r -t 33.115153667 -s 3 -d 3 -p cbr -e 230 -c 2 -a 0 -i 10 -k AGT
+ -t 33.115238571 -s 4 -d -1 -p cbr -e 210 -c 2 -a 0 -i 83 -k AGT 
- -t 33.115238571 -s 4 -d -1 -p cbr -e 210 -c 2 -a 0 -i 83 -k AGT
h -t 33.115238571 -s 4 -d -1 -p cbr -e 210 -c 2 -a 0 -i 83 -k AGT
r -t 33.121153667 -s 3 -d 3 -p cbr -e 230 -c 2 -a 0 -i 40 -k AGT
+ -t 33.126438571 -s 4 -d -1 -p cbr -e 210 -c 2 -a 0 -i 84 -k AGT 
- -t 33.126438571 -s 4 -d -1 -p cbr -e 210 -c 2 -a 0 -i 84 -k AGT
h -t 33.126438571 -s 4 -d -1 -p cbr -e 210 -c 2 -a 0 -i 84 -k AGT
+ -t 33.137638571 -s 4 -d -1 -p cbr -e 210 -c 2 -a 0 -i 85 -k AGT 
- -t 33.137638571 -s 4 -d -1 -p cbr -e 210 -c 2 -a 0 -i 85 -k AGT
h -t 33.137638571 -s 4 -d -1 -p cbr -e 210 -c 2 -a 0 -i 85 -k AGT
+ -t 33.148838571 -s 4 -d -1 -p cbr -e 210 -c 2 -a 0 -i 86 -k AGT 
- -t 33.148838571 -s 4 -d -1 -p cbr -e 210 -c 2 -a 0 -i 86 -k AGT
h -t 33.148838571 -s 4 -d -1 -p cbr -e 210 -c 2 -a 0 -i 86 -k AGT
+ -t 33.160038571 -s 4 -d -1 -p cbr -e 210 -c 2 -a 0 -i 87 -k AGT 
- -t 33.160038571 -s 4 -d -1 -p cbr -e 210 -c 2 -a 0 -i 87 -k AGT
h -t 33.160038571 -s 4 -d -1 -p cbr -e 210 -c 2 -a 0 -i 87 -k AGT
+ -t 33.171238571 -s 4 -d -1 -p cbr -e 210 -c 2 -a 0 -i 88 -k AGT 
- -t 33.171238571 -s 4 -d -1 -p cbr -e 210 -c 2 -a 0 -i 88 -k AGT
h -t 33.171238571 -s 4 -d -1 -p cbr -e 210 -c 2 -a 0 -i 88 -k AGT
r -t 33.175153667 -s 3 -d 3 -p cbr -e 230 -c 2 -a 0 -i 11 -k AGT
r -t 33.181153667 -s 3 -d 3 -p cbr -e 230 -c 2 -a 0 -i 41 -k AGT
+ -t 33.182438571 -s 4 -d -1 -p cbr -e 210 -c 2 -a 0 -i 89 -k AGT 
- -t 33.182438571 -s 4 -d -1 -p cbr -e 210 -c 2 -a 0 -i 89 -k AGT
h -t 33.182438571 -s 4 -d -1 -p cbr -e 210 -c 2 -a 0 -i 89 -k AGT
+ -t 33.193638571 -s 4 -d -1 -p cbr -e 210 -c 2 -a 0 -i 90 -k AGT 
- -t 33.193638571 -s 4 -d -1 -p cbr -e 210 -c 2 -a 0 -i 90 -k AGT
h -t 33.193638571 -s 4 -d -1 -p cbr -e 210 -c 2 -a 0 -i 90 -k AGT
+ -t 33.204838571 -s 4 -d -1 -p cbr -e 210 -c 2 -a 0 -i 91 -k AGT 
- -t 33.204838571 -s 4 -d -1 -p cbr -e 210 -c 2 -a 0 -i 91 -k AGT
h -t 33.204838571 -s 4 -d -1 -p cbr -e 210 -c 2 -a 0 -i 91 -k AGT
+ -t 33.216038571 -s 4 -d -1 -p cbr -e 210 -c 2 -a 0 -i 92 -k AGT 
- -t 33.216038571 -s 4 -d -1 -p cbr -e 210 -c 2 -a 0 -i 92 -k AGT
h -t 33.216038571 -s 4 -d -1 -p cbr -e 210 -c 2 -a 0 -i 92 -k AGT
+ -t 33.227238571 -s 4 -d -1 -p cbr -e 210 -c 2 -a 0 -i 93 -k AGT 
- -t 33.227238571 -s 4 -d -1 -p cbr -e 210 -c 2 -a 0 -i 93 -k AGT
h -t 33.227238571 -s 4 -d -1 -p cbr -e 210 -c 2 -a 0 -i 93 -k AGT
r -t 33.235153667 -s 3 -d 3 -p cbr -e 230 -c 2 -a 0 -i 12 -k AGT
+ -t 33.238438571 -s 4 -d -1 -p cbr -e 210 -c 2 -a 0 -i 94 -k AGT 
- -t 33.238438571 -s 4 -d -1 -p cbr -e 210 -c 2 -a 0 -i 94 -k AGT
h -t 33.238438571 -s 4 -d -1 -p cbr -e 210 -c 2 -a 0 -i 94 -k AGT
r -t 33.241153667 -s 3 -d 3 -p cbr -e 230 -c 2 -a 0 -i 42 -k AGT
+ -t 33.249638571 -s 4 -d -1 -p cbr -e 210 -c 2 -a 0 -i 95 -k AGT 
- -t 33.249638571 -s 4 -d -1 -p cbr -e 210 -c 2 -a 0 -i 95 -k AGT
h -t 33.249638571 -s 4 -d -1 -p cbr -e 210 -c 2 -a 0 -i 95 -k AGT
+ -t 33.260838571 -s 4 -d -1 -p cbr -e 210 -c 2 -a 0 -i 96 -k AGT 
- -t 33.260838571 -s 4 -d -1 -p cbr -e 210 -c 2 -a 0 -i 96 -k AGT
h -t 33.260838571 -s 4 -d -1 -p cbr -e 210 -c 2 -a 0 -i 96 -k AGT
+ -t 33.272038571 -s 4 -d -1 -p cbr -e 210 -c 2 -a 0 -i 97 -k AGT 
- -t 33.272038571 -s 4 -d -1 -p cbr -e 210 -c 2 -a 0 -i 97 -k AGT
h -t 33.272038571 -s 4 -d -1 -p cbr -e 210 -c 2 -a 0 -i 97 -k AGT
+ -t 33.283238571 -s 4 -d -1 -p cbr -e 210 -c 2 -a 0 -i 98 -k AGT 
- -t 33.283238571 -s 4 -d -1 -p cbr -e 210 -c 2 -a 0 -i 98 -k AGT
h -t 33.283238571 -s 4 -d -1 -p cbr -e 210 -c 2 -a 0 -i 98 -k AGT
+ -t 33.294438571 -s 4 -d -1 -p cbr -e 210 -c 2 -a 0 -i 99 -k AGT 
- -t 33.294438571 -s 4 -d -1 -p cbr -e 210 -c 2 -a 0 -i 99 -k AGT
h -t 33.294438571 -s 4 -d -1 -p cbr -e 210 -c 2 -a 0 -i 99 -k AGT
r -t 33.295153667 -s 3 -d 3 -p cbr -e 230 -c 2 -a 0 -i 13 -k AGT
r -t 33.301153667 -s 3 -d 3 -p cbr -e 230 -c 2 -a 0 -i 43 -k AGT
+ -t 33.305638571 -s 4 -d -1 -p cbr -e 210 -c 2 -a 0 -i 100 -k AGT 
- -t 33.305638571 -s 4 -d -1 -p cbr -e 210 -c 2 -a 0 -i 100 -k AGT
h -t 33.305638571 -s 4 -d -1 -p cbr -e 210 -c 2 -a 0 -i 100 -k AGT
+ -t 33.316838571 -s 4 -d -1 -p cbr -e 210 -c 2 -a 0 -i 101 -k AGT 
- -t 33.316838571 -s 4 -d -1 -p cbr -e 210 -c 2 -a 0 -i 101 -k AGT
h -t 33.316838571 -s 4 -d -1 -p cbr -e 210 -c 2 -a 0 -i 101 -k AGT
+ -t 33.328038571 -s 4 -d -1 -p cbr -e 210 -c 2 -a 0 -i 102 -k AGT 
- -t 33.328038571 -s 4 -d -1 -p cbr -e 210 -c 2 -a 0 -i 102 -k AGT
h -t 33.328038571 -s 4 -d -1 -p cbr -e 210 -c 2 -a 0 -i 102 -k AGT
+ -t 33.339238571 -s 4 -d -1 -p cbr -e 210 -c 2 -a 0 -i 103 -k AGT 
- -t 33.339238571 -s 4 -d -1 -p cbr -e 210 -c 2 -a 0 -i 103 -k AGT
h -t 33.339238571 -s 4 -d -1 -p cbr -e 210 -c 2 -a 0 -i 103 -k AGT
+ -t 33.350438571 -s 4 -d -1 -p cbr -e 210 -c 2 -a 0 -i 104 -k AGT 
- -t 33.350438571 -s 4 -d -1 -p cbr -e 210 -c 2 -a 0 -i 104 -k AGT
h -t 33.350438571 -s 4 -d -1 -p cbr -e 210 -c 2 -a 0 -i 104 -k AGT
r -t 33.355153667 -s 3 -d 3 -p cbr -e 230 -c 2 -a 0 -i 14 -k AGT
r -t 33.361153667 -s 3 -d 3 -p cbr -e 230 -c 2 -a 0 -i 44 -k AGT
+ -t 33.361638571 -s 4 -d -1 -p cbr -e 210 -c 2 -a 0 -i 105 -k AGT 
- -t 33.361638571 -s 4 -d -1 -p cbr -e 210 -c 2 -a 0 -i 105 -k AGT
h -t 33.361638571 -s 4 -d -1 -p cbr -e 210 -c 2 -a 0 -i 105 -k AGT
+ -t 33.372838571 -s 4 -d -1 -p cbr -e 210 -c 2 -a 0 -i 106 -k AGT 
- -t 33.372838571 -s 4 -d -1 -p cbr -e 210 -c 2 -a 0 -i 106 -k AGT
h -t 33.372838571 -s 4 -d -1 -p cbr -e 210 -c 2 -a 0 -i 106 -k AGT
+ -t 33.384038571 -s 4 -d -1 -p cbr -e 210 -c 2 -a 0 -i 107 -k AGT 
- -t 33.384038571 -s 4 -d -1 -p cbr -e 210 -c 2 -a 0 -i 107 -k AGT
h -t 33.384038571 -s 4 -d -1 -p cbr -e 210 -c 2 -a 0 -i 107 -k AGT
+ -t 33.395238571 -s 4 -d -1 -p cbr -e 210 -c 2 -a 0 -i 108 -k AGT 
- -t 33.395238571 -s 4 -d -1 -p cbr -e 210 -c 2 -a 0 -i 108 -k AGT
h -t 33.395238571 -s 4 -d -1 -p cbr -e 210 -c 2 -a 0 -i 108 -k AGT
+ -t 33.406438571 -s 4 -d -1 -p cbr -e 210 -c 2 -a 0 -i 109 -k AGT 
- -t 33.406438571 -s 4 -d -1 -p cbr -e 210 -c 2 -a 0 -i 109 -k AGT
h -t 33.406438571 -s 4 -d -1 -p cbr -e 210 -c 2 -a 0 -i 109 -k AGT
r -t 33.415153667 -s 3 -d 3 -p cbr -e 230 -c 2 -a 0 -i 15 -k AGT
+ -t 33.417638571 -s 4 -d -1 -p cbr -e 210 -c 2 -a 0 -i 110 -k AGT 
- -t 33.417638571 -s 4 -d -1 -p cbr -e 210 -c 2 -a 0 -i 110 -k AGT
h -t 33.417638571 -s 4 -d -1 -p cbr -e 210 -c 2 -a 0 -i 110 -k AGT
r -t 33.421153667 -s 3 -d 3 -p cbr -e 230 -c 2 -a 0 -i 45 -k AGT
+ -t 33.428838571 -s 4 -d -1 -p cbr -e 210 -c 2 -a 0 -i 111 -k AGT 
- -t 33.428838571 -s 4 -d -1 -p cbr -e 210 -c 2 -a 0 -i 111 -k AGT
h -t 33.428838571 -s 4 -d -1 -p cbr -e 210 -c 2 -a 0 -i 111 -k AGT
+ -t 33.440038571 -s 4 -d -1 -p cbr -e 210 -c 2 -a 0 -i 112 -k AGT 
- -t 33.440038571 -s 4 -d -1 -p cbr -e 210 -c 2 -a 0 -i 112 -k AGT
h -t 33.440038571 -s 4 -d -1 -p cbr -e 210 -c 2 -a 0 -i 112 -k AGT
+ -t 33.451238571 -s 4 -d -1 -p cbr -e 210 -c 2 -a 0 -i 113 -k AGT 
- -t 33.451238571 -s 4 -d -1 -p cbr -e 210 -c 2 -a 0 -i 113 -k AGT
h -t 33.451238571 -s 4 -d -1 -p cbr -e 210 -c 2 -a 0 -i 113 -k AGT
+ -t 33.462438571 -s 4 -d -1 -p cbr -e 210 -c 2 -a 0 -i 114 -k AGT 
- -t 33.462438571 -s 4 -d -1 -p cbr -e 210 -c 2 -a 0 -i 114 -k AGT
h -t 33.462438571 -s 4 -d -1 -p cbr -e 210 -c 2 -a 0 -i 114 -k AGT
+ -t 33.473638571 -s 4 -d -1 -p cbr -e 210 -c 2 -a 0 -i 115 -k AGT 
- -t 33.473638571 -s 4 -d -1 -p cbr -e 210 -c 2 -a 0 -i 115 -k AGT
h -t 33.473638571 -s 4 -d -1 -p cbr -e 210 -c 2 -a 0 -i 115 -k AGT
r -t 33.475153667 -s 3 -d 3 -p cbr -e 230 -c 2 -a 0 -i 16 -k AGT
+ -t 33.484838571 -s 4 -d -1 -p cbr -e 210 -c 2 -a 0 -i 116 -k AGT 
- -t 33.484838571 -s 4 -d -1 -p cbr -e 210 -c 2 -a 0 -i 116 -k AGT
h -t 33.484838571 -s 4 -d -1 -p cbr -e 210 -c 2 -a 0 -i 116 -k AGT
+ -t 33.496038571 -s 4 -d -1 -p cbr -e 210 -c 2 -a 0 -i 117 -k AGT 
- -t 33.496038571 -s 4 -d -1 -p cbr -e 210 -c 2 -a 0 -i 117 -k AGT
h -t 33.496038571 -s 4 -d -1 -p cbr -e 210 -c 2 -a 0 -i 117 -k AGT
+ -t 33.507238571 -s 4 -d -1 -p cbr -e 210 -c 2 -a 0 -i 118 -k AGT 
- -t 33.507238571 -s 4 -d -1 -p cbr -e 210 -c 2 -a 0 -i 118 -k AGT
h -t 33.507238571 -s 4 -d -1 -p cbr -e 210 -c 2 -a 0 -i 118 -k AGT
+ -t 33.518438571 -s 4 -d -1 -p cbr -e 210 -c 2 -a 0 -i 119 -k AGT 
- -t 33.518438571 -s 4 -d -1 -p cbr -e 210 -c 2 -a 0 -i 119 -k AGT
h -t 33.518438571 -s 4 -d -1 -p cbr -e 210 -c 2 -a 0 -i 119 -k AGT
+ -t 33.529638571 -s 4 -d -1 -p cbr -e 210 -c 2 -a 0 -i 120 -k AGT 
- -t 33.529638571 -s 4 -d -1 -p cbr -e 210 -c 2 -a 0 -i 120 -k AGT
h -t 33.529638571 -s 4 -d -1 -p cbr -e 210 -c 2 -a 0 -i 120 -k AGT
r -t 33.535153667 -s 3 -d 3 -p cbr -e 230 -c 2 -a 0 -i 46 -k AGT
+ -t 33.540838571 -s 4 -d -1 -p cbr -e 210 -c 2 -a 0 -i 121 -k AGT 
- -t 33.540838571 -s 4 -d -1 -p cbr -e 210 -c 2 -a 0 -i 121 -k AGT
h -t 33.540838571 -s 4 -d -1 -p cbr -e 210 -c 2 -a 0 -i 121 -k AGT
r -t 33.541153667 -s 3 -d 3 -p cbr -e 230 -c 2 -a 0 -i 17 -k AGT
+ -t 33.552038571 -s 4 -d -1 -p cbr -e 210 -c 2 -a 0 -i 122 -k AGT 
- -t 33.552038571 -s 4 -d -1 -p cbr -e 210 -c 2 -a 0 -i 122 -k AGT
h -t 33.552038571 -s 4 -d -1 -p cbr -e 210 -c 2 -a 0 -i 122 -k AGT
+ -t 33.563238571 -s 4 -d -1 -p cbr -e 210 -c 2 -a 0 -i 123 -k AGT 
- -t 33.563238571 -s 4 -d -1 -p cbr -e 210 -c 2 -a 0 -i 123 -k AGT
h -t 33.563238571 -s 4 -d -1 -p cbr -e 210 -c 2 -a 0 -i 123 -k AGT
+ -t 33.574438571 -s 4 -d -1 -p cbr -e 210 -c 2 -a 0 -i 124 -k AGT 
- -t 33.574438571 -s 4 -d -1 -p cbr -e 210 -c 2 -a 0 -i 124 -k AGT
h -t 33.574438571 -s 4 -d -1 -p cbr -e 210 -c 2 -a 0 -i 124 -k AGT
+ -t 33.585638571 -s 4 -d -1 -p cbr -e 210 -c 2 -a 0 -i 125 -k AGT 
- -t 33.585638571 -s 4 -d -1 -p cbr -e 210 -c 2 -a 0 -i 125 -k AGT
h -t 33.585638571 -s 4 -d -1 -p cbr -e 210 -c 2 -a 0 -i 125 -k AGT
r -t 33.595153667 -s 3 -d 3 -p cbr -e 230 -c 2 -a 0 -i 47 -k AGT
+ -t 33.596838571 -s 4 -d -1 -p cbr -e 210 -c 2 -a 0 -i 126 -k AGT 
- -t 33.596838571 -s 4 -d -1 -p cbr -e 210 -c 2 -a 0 -i 126 -k AGT
h -t 33.596838571 -s 4 -d -1 -p cbr -e 210 -c 2 -a 0 -i 126 -k AGT
r -t 33.601153667 -s 3 -d 3 -p cbr -e 230 -c 2 -a 0 -i 18 -k AGT
+ -t 33.608038571 -s 4 -d -1 -p cbr -e 210 -c 2 -a 0 -i 127 -k AGT 
- -t 33.608038571 -s 4 -d -1 -p cbr -e 210 -c 2 -a 0 -i 127 -k AGT
h -t 33.608038571 -s 4 -d -1 -p cbr -e 210 -c 2 -a 0 -i 127 -k AGT
+ -t 33.619238571 -s 4 -d -1 -p cbr -e 210 -c 2 -a 0 -i 128 -k AGT 
- -t 33.619238571 -s 4 -d -1 -p cbr -e 210 -c 2 -a 0 -i 128 -k AGT
h -t 33.619238571 -s 4 -d -1 -p cbr -e 210 -c 2 -a 0 -i 128 -k AGT
+ -t 33.630438571 -s 4 -d -1 -p cbr -e 210 -c 2 -a 0 -i 129 -k AGT 
- -t 33.630438571 -s 4 -d -1 -p cbr -e 210 -c 2 -a 0 -i 129 -k AGT
h -t 33.630438571 -s 4 -d -1 -p cbr -e 210 -c 2 -a 0 -i 129 -k AGT
+ -t 33.641638571 -s 4 -d -1 -p cbr -e 210 -c 2 -a 0 -i 130 -k AGT 
- -t 33.641638571 -s 4 -d -1 -p cbr -e 210 -c 2 -a 0 -i 130 -k AGT
h -t 33.641638571 -s 4 -d -1 -p cbr -e 210 -c 2 -a 0 -i 130 -k AGT