n -t * -s 0  -x 50 -y 50 -Z 0 -z 10  -v circle -c black
n -t * -s 1  -x 50 -y 250 -Z 0 -z 10  -v circle -c black
n -t * -s 2  -x 50 -y 450 -Z 0 -z 10  -v circle -c black
n -t * -s 3  -x 50 -y 650 -Z 0 -z 10  -v circle -c black
n -t * -s 4  -x 50 -y 850 -Z 0 -z 10  -v circle -c black
n -t * -s 5  -x 250 -y 50 -Z 0 -z 10  -v circle -c black
n -t * -s 6  -x 250 -y 250 -Z 0 -z 10  -v circle -c black
n -t * -s 7  -x 250 -y 450 -Z 0 -z 10  -v circle -c black
n -t * -s 8  -x 250 -y 650 -Z 0 -z 10  -v circle -c black
n -t * -s 9  -x 250 -y 850 -Z 0 -z 10  -v circle -c black
n -t * -s 10  -x 450 -y 50 -Z 0 -z 10  -v circle -c black
n -t * -s 11  -x 450 -y 250 -Z 0 -z 10  -v circle -c black
n -t * -s 12  -x 450 -y 450 -Z 0 -z 10  -v circle -c black
n -t * -s 13  -x 450 -y 650 -Z 0 -z 10  -v circle -c black
n -t * -s 14  -x 450 -y 850 -Z 0 -z 10  -v circle -c black
n -t * -s 15  -x 650 -y 50 -Z 0 -z 10  -v circle -c black
n -t * -s 16  -x 650 -y 250 -Z 0 -z 10  -v circle -c black
n -t * -s 17  -x 650 -y 450 -Z 0 -z 10  -v circle -c black
n -t * -s 18  -x 650 -y 650 -Z 0 -z 10  -v circle -c black
n -t * -s 19  -x 650 -y 850 -Z 0 -z 10  -v circle -c black
n -t * -s 20  -x 850 -y 50 -Z 0 -z 10  -v circle -c black
n -t * -s 21  -x 850 -y 250 -Z 0 -z 10  -v circle -c black
n -t * -s 22  -x 850 -y 450 -Z 0 -z 10  -v circle -c black
n -t * -s 23  -x 850 -y 650 -Z 0 -z 10  -v circle -c black
n -t * -s 24  -x 850 -y 850 -Z 0 -z 10  -v circle -c black
V -t * -v 1.0a5 -a 0
W -t * -x 1000 -y 1000
A -t * -n 1 -p 0 -o 0x7fffffff -c 30 -a 1
A -t * -h 1 -m 1073741823 -s 0
+ -t 5.619949710 -s 13 -d -1 -p cbr -e 210 -c 2 -a 0 -i 0 -k AGT 
- -t 5.619949710 -s 13 -d -1 -p cbr -e 210 -c 2 -a 0 -i 0 -k AGT
h -t 5.619949710 -s 13 -d -1 -p cbr -e 210 -c 2 -a 0 -i 0 -k AGT
+ -t 5.653549710 -s 13 -d -1 -p cbr -e 210 -c 2 -a 0 -i 1 -k AGT 
- -t 5.653549710 -s 13 -d -1 -p cbr -e 210 -c 2 -a 0 -i 1 -k AGT
h -t 5.653549710 -s 13 -d -1 -p cbr -e 210 -c 2 -a 0 -i 1 -k AGT
+ -t 5.687149710 -s 13 -d -1 -p cbr -e 210 -c 2 -a 0 -i 2 -k AGT 
- -t 5.687149710 -s 13 -d -1 -p cbr -e 210 -c 2 -a 0 -i 2 -k AGT
h -t 5.687149710 -s 13 -d -1 -p cbr -e 210 -c 2 -a 0 -i 2 -k AGT
+ -t 5.720749710 -s 13 -d -1 -p cbr -e 210 -c 2 -a 0 -i 3 -k AGT 
- -t 5.720749710 -s 13 -d -1 -p cbr -e 210 -c 2 -a 0 -i 3 -k AGT
h -t 5.720749710 -s 13 -d -1 -p cbr -e 210 -c 2 -a 0 -i 3 -k AGT
+ -t 5.754349710 -s 13 -d -1 -p cbr -e 210 -c 2 -a 0 -i 4 -k AGT 
- -t 5.754349710 -s 13 -d -1 -p cbr -e 210 -c 2 -a 0 -i 4 -k AGT
h -t 5.754349710 -s 13 -d -1 -p cbr -e 210 -c 2 -a 0 -i 4 -k AGT
+ -t 5.787949710 -s 13 -d -1 -p cbr -e 210 -c 2 -a 0 -i 5 -k AGT 
- -t 5.787949710 -s 13 -d -1 -p cbr -e 210 -c 2 -a 0 -i 5 -k AGT
h -t 5.787949710 -s 13 -d -1 -p cbr -e 210 -c 2 -a 0 -i 5 -k AGT
+ -t 5.821549710 -s 13 -d -1 -p cbr -e 210 -c 2 -a 0 -i 6 -k AGT 
- -t 5.821549710 -s 13 -d -1 -p cbr -e 210 -c 2 -a 0 -i 6 -k AGT
h -t 5.821549710 -s 13 -d -1 -p cbr -e 210 -c 2 -a 0 -i 6 -k AGT
+ -t 5.855149710 -s 13 -d -1 -p cbr -e 210 -c 2 -a 0 -i 7 -k AGT 
- -t 5.855149710 -s 13 -d -1 -p cbr -e 210 -c 2 -a 0 -i 7 -k AGT
h -t 5.855149710 -s 13 -d -1 -p cbr -e 210 -c 2 -a 0 -i 7 -k AGT
+ -t 5.888749710 -s 13 -d -1 -p cbr -e 210 -c 2 -a 0 -i 8 -k AGT 
- -t 5.888749710 -s 13 -d -1 -p cbr -e 210 -c 2 -a 0 -i 8 -k AGT
h -t 5.888749710 -s 13 -d -1 -p cbr -e 210 -c 2 -a 0 -i 8 -k AGT
+ -t 5.922349710 -s 13 -d -1 -p cbr -e 210 -c 2 -a 0 -i 9 -k AGT 
- -t 5.922349710 -s 13 -d -1 -p cbr -e 210 -c 2 -a 0 -i 9 -k AGT
h -t 5.922349710 -s 13 -d -1 -p cbr -e 210 -c 2 -a 0 -i 9 -k AGT
+ -t 5.955949710 -s 13 -d -1 -p cbr -e 210 -c 2 -a 0 -i 10 -k AGT 
- -t 5.955949710 -s 13 -d -1 -p cbr -e 210 -c 2 -a 0 -i 10 -k AGT
h -t 5.955949710 -s 13 -d -1 -p cbr -e 210 -c 2 -a 0 -i 10 -k AGT
+ -t 5.989549710 -s 13 -d -1 -p cbr -e 210 -c 2 -a 0 -i 11 -k AGT 
- -t 5.989549710 -s 13 -d -1 -p cbr -e 210 -c 2 -a 0 -i 11 -k AGT
h -t 5.989549710 -s 13 -d -1 -p cbr -e 210 -c 2 -a 0 -i 11 -k AGT
+ -t 6.023149710 -s 13 -d -1 -p cbr -e 210 -c 2 -a 0 -i 12 -k AGT 
- -t 6.023149710 -s 13 -d -1 -p cbr -e 210 -c 2 -a 0 -i 12 -k AGT
h -t 6.023149710 -s 13 -d -1 -p cbr -e 210 -c 2 -a 0 -i 12 -k AGT
+ -t 6.056749710 -s 13 -d -1 -p cbr -e 210 -c 2 -a 0 -i 13 -k AGT 
- -t 6.056749710 -s 13 -d -1 -p cbr -e 210 -c 2 -a 0 -i 13 -k AGT
h -t 6.056749710 -s 13 -d -1 -p cbr -e 210 -c 2 -a 0 -i 13 -k AGT
+ -t 6.090349710 -s 13 -d -1 -p cbr -e 210 -c 2 -a 0 -i 14 -k AGT 
- -t 6.090349710 -s 13 -d -1 -p cbr -e 210 -c 2 -a 0 -i 14 -k AGT
h -t 6.090349710 -s 13 -d -1 -p cbr -e 210 -c 2 -a 0 -i 14 -k AGT
+ -t 6.123949710 -s 13 -d -1 -p cbr -e 210 -c 2 -a 0 -i 15 -k AGT 
- -t 6.123949710 -s 13 -d -1 -p cbr -e 210 -c 2 -a 0 -i 15 -k AGT
h -t 6.123949710 -s 13 -d -1 -p cbr -e 210 -c 2 -a 0 -i 15 -k AGT
+ -t 6.157549710 -s 13 -d -1 -p cbr -e 210 -c 2 -a 0 -i 16 -k AGT 
- -t 6.157549710 -s 13 -d -1 -p cbr -e 210 -c 2 -a 0 -i 16 -k AGT
h -t 6.157549710 -s 13 -d -1 -p cbr -e 210 -c 2 -a 0 -i 16 -k AGT
+ -t 6.191149710 -s 13 -d -1 -p cbr -e 210 -c 2 -a 0 -i 17 -k AGT 
- -t 6.191149710 -s 13 -d -1 -p cbr -e 210 -c 2 -a 0 -i 17 -k AGT
h -t 6.191149710 -s 13 -d -1 -p cbr -e 210 -c 2 -a 0 -i 17 -k AGT
r -t 6.211153667 -s 21 -d 21 -p cbr -e 230 -c 2 -a 0 -i 0 -k AGT
+ -t 6.224749710 -s 13 -d -1 -p cbr -e 210 -c 2 -a 0 -i 18 -k AGT 
- -t 6.224749710 -s 13 -d -1 -p cbr -e 210 -c 2 -a 0 -i 18 -k AGT
h -t 6.224749710 -s 13 -d -1 -p cbr -e 210 -c 2 -a 0 -i 18 -k AGT
+ -t 6.258349710 -s 13 -d -1 -p cbr -e 210 -c 2 -a 0 -i 19 -k AGT 
- -t 6.258349710 -s 13 -d -1 -p cbr -e 210 -c 2 -a 0 -i 19 -k AGT
h -t 6.258349710 -s 13 -d -1 -p cbr -e 210 -c 2 -a 0 -i 19 -k AGT
r -t 6.271153667 -s 21 -d 21 -p cbr -e 230 -c 2 -a 0 -i 2 -k AGT
+ -t 6.291949710 -s 13 -d -1 -p cbr -e 210 -c 2 -a 0 -i 20 -k AGT 
- -t 6.291949710 -s 13 -d -1 -p cbr -e 210 -c 2 -a 0 -i 20 -k AGT
h -t 6.291949710 -s 13 -d -1 -p cbr -e 210 -c 2 -a 0 -i 20 -k AGT
+ -t 6.325549710 -s 13 -d -1 -p cbr -e 210 -c 2 -a 0 -i 21 -k AGT 
- -t 6.325549710 -s 13 -d -1 -p cbr -e 210 -c 2 -a 0 -i 21 -k AGT
h -t 6.325549710 -s 13 -d -1 -p cbr -e 210 -c 2 -a 0 -i 21 -k AGT
r -t 6.331153667 -s 21 -d 21 -p cbr -e 230 -c 2 -a 0 -i 3 -k AGT
+ -t 6.359149710 -s 13 -d -1 -p cbr -e 210 -c 2 -a 0 -i 22 -k AGT 
- -t 6.359149710 -s 13 -d -1 -p cbr -e 210 -c 2 -a 0 -i 22 -k AGT
h -t 6.359149710 -s 13 -d -1 -p cbr -e 210 -c 2 -a 0 -i 22 -k AGT
r -t 6.391153667 -s 21 -d 21 -p cbr -e 230 -c 2 -a 0 -i 5 -k AGT
+ -t 6.392749710 -s 13 -d -1 -p cbr -e 210 -c 2 -a 0 -i 23 -k AGT 
- -t 6.392749710 -s 13 -d -1 -p cbr -e 210 -c 2 -a 0 -i 23 -k AGT
h -t 6.392749710 -s 13 -d -1 -p cbr -e 210 -c 2 -a 0 -i 23 -k AGT
+ -t 6.426349710 -s 13 -d -1 -p cbr -e 210 -c 2 -a 0 -i 24 -k AGT 
- -t 6.426349710 -s 13 -d -1 -p cbr -e 210 -c 2 -a 0 -i 24 -k AGT
h -t 6.426349710 -s 13 -d -1 -p cbr -e 210 -c 2 -a 0 -i 24 -k AGT
r -t 6.451153667 -s 21 -d 21 -p cbr -e 230 -c 2 -a 0 -i 18 -k AGT
+ -t 6.459949710 -s 13 -d -1 -p cbr -e 210 -c 2 -a 0 -i 25 -k AGT 
- -t 6.459949710 -s 13 -d -1 -p cbr -e 210 -c 2 -a 0 -i 25 -k AGT
h -t 6.459949710 -s 13 -d -1 -p cbr -e 210 -c 2 -a 0 -i 25 -k AGT
+ -t 6.493549710 -s 13 -d -1 -p cbr -e 210 -c 2 -a 0 -i 26 -k AGT 
- -t 6.493549710 -s 13 -d -1 -p cbr -e 210 -c 2 -a 0 -i 26 -k AGT
h -t 6.493549710 -s 13 -d -1 -p cbr -e 210 -c 2 -a 0 -i 26 -k AGT
r -t 6.511153667 -s 21 -d 21 -p cbr -e 230 -c 2 -a 0 -i 8 -k AGT
+ -t 6.527149710 -s 13 -d -1 -p cbr -e 210 -c 2 -a 0 -i 27 -k AGT 
- -t 6.527149710 -s 13 -d -1 -p cbr -e 210 -c 2 -a 0 -i 27 -k AGT
h -t 6.527149710 -s 13 -d -1 -p cbr -e 210 -c 2 -a 0 -i 27 -k AGT
+ -t 6.560749710 -s 13 -d -1 -p cbr -e 210 -c 2 -a 0 -i 28 -k AGT 
- -t 6.560749710 -s 13 -d -1 -p cbr -e 210 -c 2 -a 0 -i 28 -k AGT
h -t 6.560749710 -s 13 -d -1 -p cbr -e 210 -c 2 -a 0 -i 28 -k AGT
r -t 6.571153667 -s 21 -d 21 -p cbr -e 230 -c 2 -a 0 -i 19 -k AGT
+ -t 6.594349710 -s 13 -d -1 -p cbr -e 210 -c 2 -a 0 -i 29 -k AGT 
- -t 6.594349710 -s 13 -d -1 -p cbr -e 210 -c 2 -a 0 -i 29 -k AGT
h -t 6.594349710 -s 13 -d -1 -p cbr -e 210 -c 2 -a 0 -i 29 -k AGT
+ -t 6.627949710 -s 13 -d -1 -p cbr -e 210 -c 2 -a 0 -i 30 -k AGT 
- -t 6.627949710 -s 13 -d -1 -p cbr -e 210 -c 2 -a 0 -i 30 -k AGT
h -t 6.627949710 -s 13 -d -1 -p cbr -e 210 -c 2 -a 0 -i 30 -k AGT
r -t 6.631153667 -s 21 -d 21 -p cbr -e 230 -c 2 -a 0 -i 11 -k AGT
+ -t 6.661549710 -s 13 -d -1 -p cbr -e 210 -c 2 -a 0 -i 31 -k AGT 
- -t 6.661549710 -s 13 -d -1 -p cbr -e 210 -c 2 -a 0 -i 31 -k AGT
h -t 6.661549710 -s 13 -d -1 -p cbr -e 210 -c 2 -a 0 -i 31 -k AGT
r -t 6.691153667 -s 21 -d 21 -p cbr -e 230 -c 2 -a 0 -i 20 -k AGT
+ -t 6.695149710 -s 13 -d -1 -p cbr -e 210 -c 2 -a 0 -i 32 -k AGT 
- -t 6.695149710 -s 13 -d -1 -p cbr -e 210 -c 2 -a 0 -i 32 -k AGT
h -t 6.695149710 -s 13 -d -1 -p cbr -e 210 -c 2 -a 0 -i 32 -k AGT
+ -t 6.728749710 -s 13 -d -1 -p cbr -e 210 -c 2 -a 0 -i 33 -k AGT 
- -t 6.728749710 -s 13 -d -1 -p cbr -e 210 -c 2 -a 0 -i 33 -k AGT
h -t 6.728749710 -s 13 -d -1 -p cbr -e 210 -c 2 -a 0 -i 33 -k AGT
r -t 6.751153667 -s 21 -d 21 -p cbr -e 230 -c 2 -a 0 -i 14 -k AGT
+ -t 6.762349710 -s 13 -d -1 -p cbr -e 210 -c 2 -a 0 -i 34 -k AGT 
- -t 6.762349710 -s 13 -d -1 -p cbr -e 210 -c 2 -a 0 -i 34 -k AGT
h -t 6.762349710 -s 13 -d -1 -p cbr -e 210 -c 2 -a 0 -i 34 -k AGT
+ -t 6.795949710 -s 13 -d -1 -p cbr -e 210 -c 2 -a 0 -i 35 -k AGT 
- -t 6.795949710 -s 13 -d -1 -p cbr -e 210 -c 2 -a 0 -i 35 -k AGT
h -t 6.795949710 -s 13 -d -1 -p cbr -e 210 -c 2 -a 0 -i 35 -k AGT
r -t 6.811153667 -s 21 -d 21 -p cbr -e 230 -c 2 -a 0 -i 16 -k AGT
+ -t 6.829549710 -s 13 -d -1 -p cbr -e 210 -c 2 -a 0 -i 36 -k AGT 
- -t 6.829549710 -s 13 -d -1 -p cbr -e 210 -c 2 -a 0 -i 36 -k AGT
h -t 6.829549710 -s 13 -d -1 -p cbr -e 210 -c 2 -a 0 -i 36 -k AGT
+ -t 6.863149710 -s 13 -d -1 -p cbr -e 210 -c 2 -a 0 -i 37 -k AGT 
- -t 6.863149710 -s 13 -d -1 -p cbr -e 210 -c 2 -a 0 -i 37 -k AGT
h -t 6.863149710 -s 13 -d -1 -p cbr -e 210 -c 2 -a 0 -i 37 -k AGT
r -t 6.871153667 -s 21 -d 21 -p cbr -e 230 -c 2 -a 0 -i 22 -k AGT
+ -t 6.896749710 -s 13 -d -1 -p cbr -e 210 -c 2 -a 0 -i 38 -k AGT 
- -t 6.896749710 -s 13 -d -1 -p cbr -e 210 -c 2 -a 0 -i 38 -k AGT
h -t 6.896749710 -s 13 -d -1 -p cbr -e 210 -c 2 -a 0 -i 38 -k AGT
+ -t 6.930349710 -s 13 -d -1 -p cbr -e 210 -c 2 -a 0 -i 39 -k AGT 
- -t 6.930349710 -s 13 -d -1 -p cbr -e 210 -c 2 -a 0 -i 39 -k AGT
h -t 6.930349710 -s 13 -d -1 -p cbr -e 210 -c 2 -a 0 -i 39 -k AGT
r -t 6.931153667 -s 21 -d 21 -p cbr -e 230 -c 2 -a 0 -i 24 -k AGT
+ -t 6.963949710 -s 13 -d -1 -p cbr -e 210 -c 2 -a 0 -i 40 -k AGT 
- -t 6.963949710 -s 13 -d -1 -p cbr -e 210 -c 2 -a 0 -i 40 -k AGT
h -t 6.963949710 -s 13 -d -1 -p cbr -e 210 -c 2 -a 0 -i 40 -k AGT
r -t 6.991153667 -s 21 -d 21 -p cbr -e 230 -c 2 -a 0 -i 26 -k AGT
+ -t 6.997549710 -s 13 -d -1 -p cbr -e 210 -c 2 -a 0 -i 41 -k AGT 
- -t 6.997549710 -s 13 -d -1 -p cbr -e 210 -c 2 -a 0 -i 41 -k AGT
h -t 6.997549710 -s 13 -d -1 -p cbr -e 210 -c 2 -a 0 -i 41 -k AGT
+ -t 7.031149710 -s 13 -d -1 -p cbr -e 210 -c 2 -a 0 -i 42 -k AGT 
- -t 7.031149710 -s 13 -d -1 -p cbr -e 210 -c 2 -a 0 -i 42 -k AGT
h -t 7.031149710 -s 13 -d -1 -p cbr -e 210 -c 2 -a 0 -i 42 -k AGT
r -t 7.051153667 -s 21 -d 21 -p cbr -e 230 -c 2 -a 0 -i 28 -k AGT
+ -t 7.064749710 -s 13 -d -1 -p cbr -e 210 -c 2 -a 0 -i 43 -k AGT 
- -t 7.064749710 -s 13 -d -1 -p cbr -e 210 -c 2 -a 0 -i 43 -k AGT
h -t 7.064749710 -s 13 -d -1 -p cbr -e 210 -c 2 -a 0 -i 43 -k AGT
+ -t 7.098349710 -s 13 -d -1 -p cbr -e 210 -c 2 -a 0 -i 44 -k AGT 
- -t 7.098349710 -s 13 -d -1 -p cbr -e 210 -c 2 -a 0 -i 44 -k AGT
h -t 7.098349710 -s 13 -d -1 -p cbr -e 210 -c 2 -a 0 -i 44 -k AGT
r -t 7.111153667 -s 21 -d 21 -p cbr -e 230 -c 2 -a 0 -i 30 -k AGT
+ -t 7.131949710 -s 13 -d -1 -p cbr -e 210 -c 2 -a 0 -i 45 -k AGT 
- -t 7.131949710 -s 13 -d -1 -p cbr -e 210 -c 2 -a 0 -i 45 -k AGT
h -t 7.131949710 -s 13 -d -1 -p cbr -e 210 -c 2 -a 0 -i 45 -k AGT
+ -t 7.165549710 -s 13 -d -1 -p cbr -e 210 -c 2 -a 0 -i 46 -k AGT 
- -t 7.165549710 -s 13 -d -1 -p cbr -e 210 -c 2 -a 0 -i 46 -k AGT
h -t 7.165549710 -s 13 -d -1 -p cbr -e 210 -c 2 -a 0 -i 46 -k AGT
r -t 7.171153667 -s 21 -d 21 -p cbr -e 230 -c 2 -a 0 -i 32 -k AGT
+ -t 7.199149710 -s 13 -d -1 -p cbr -e 210 -c 2 -a 0 -i 47 -k AGT 
- -t 7.199149710 -s 13 -d -1 -p cbr -e 210 -c 2 -a 0 -i 47 -k AGT
h -t 7.199149710 -s 13 -d -1 -p cbr -e 210 -c 2 -a 0 -i 47 -k AGT
r -t 7.231153667 -s 21 -d 21 -p cbr -e 230 -c 2 -a 0 -i 34 -k AGT
+ -t 7.232749710 -s 13 -d -1 -p cbr -e 210 -c 2 -a 0 -i 48 -k AGT 
- -t 7.232749710 -s 13 -d -1 -p cbr -e 210 -c 2 -a 0 -i 48 -k AGT
h -t 7.232749710 -s 13 -d -1 -p cbr -e 210 -c 2 -a 0 -i 48 -k AGT
+ -t 7.266349710 -s 13 -d -1 -p cbr -e 210 -c 2 -a 0 -i 49 -k AGT 
- -t 7.266349710 -s 13 -d -1 -p cbr -e 210 -c 2 -a 0 -i 49 -k AGT
h -t 7.266349710 -s 13 -d -1 -p cbr -e 210 -c 2 -a 0 -i 49 -k AGT
r -t 7.291153667 -s 21 -d 21 -p cbr -e 230 -c 2 -a 0 -i 36 -k AGT
+ -t 7.299949710 -s 13 -d -1 -p cbr -e 210 -c 2 -a 0 -i 50 -k AGT 
- -t 7.299949710 -s 13 -d -1 -p cbr -e 210 -c 2 -a 0 -i 50 -k AGT
h -t 7.299949710 -s 13 -d -1 -p cbr -e 210 -c 2 -a 0 -i 50 -k AGT
+ -t 7.333549710 -s 13 -d -1 -p cbr -e 210 -c 2 -a 0 -i 51 -k AGT 
- -t 7.333549710 -s 13 -d -1 -p cbr -e 210 -c 2 -a 0 -i 51 -k AGT
h -t 7.333549710 -s 13 -d -1 -p cbr -e 210 -c 2 -a 0 -i 51 -k AGT
r -t 7.351153667 -s 21 -d 21 -p cbr -e 230 -c 2 -a 0 -i 38 -k AGT
+ -t 7.367149710 -s 13 -d -1 -p cbr -e 210 -c 2 -a 0 -i 52 -k AGT 
- -t 7.367149710 -s 13 -d -1 -p cbr -e 210 -c 2 -a 0 -i 52 -k AGT
h -t 7.367149710 -s 13 -d -1 -p cbr -e 210 -c 2 -a 0 -i 52 -k AGT
+ -t 7.400749710 -s 13 -d -1 -p cbr -e 210 -c 2 -a 0 -i 53 -k AGT 
- -t 7.400749710 -s 13 -d -1 -p cbr -e 210 -c 2 -a 0 -i 53 -k AGT
h -t 7.400749710 -s 13 -d -1 -p cbr -e 210 -c 2 -a 0 -i 53 -k AGT
r -t 7.411153667 -s 21 -d 21 -p cbr -e 230 -c 2 -a 0 -i 40 -k AGT
+ -t 7.434349710 -s 13 -d -1 -p cbr -e 210 -c 2 -a 0 -i 54 -k AGT 
- -t 7.434349710 -s 13 -d -1 -p cbr -e 210 -c 2 -a 0 -i 54 -k AGT
h -t 7.434349710 -s 13 -d -1 -p cbr -e 210 -c 2 -a 0 -i 54 -k AGT
+ -t 7.467949710 -s 13 -d -1 -p cbr -e 210 -c 2 -a 0 -i 55 -k AGT 
- -t 7.467949710 -s 13 -d -1 -p cbr -e 210 -c 2 -a 0 -i 55 -k AGT
h -t 7.467949710 -s 13 -d -1 -p cbr -e 210 -c 2 -a 0 -i 55 -k AGT
r -t 7.471153667 -s 21 -d 21 -p cbr -e 230 -c 2 -a 0 -i 42 -k AGT
+ -t 7.501549710 -s 13 -d -1 -p cbr -e 210 -c 2 -a 0 -i 56 -k AGT 
- -t 7.501549710 -s 13 -d -1 -p cbr -e 210 -c 2 -a 0 -i 56 -k AGT
h -t 7.501549710 -s 13 -d -1 -p cbr -e 210 -c 2 -a 0 -i 56 -k AGT
r -t 7.531153667 -s 21 -d 21 -p cbr -e 230 -c 2 -a 0 -i 44 -k AGT
+ -t 7.535149710 -s 13 -d -1 -p cbr -e 210 -c 2 -a 0 -i 57 -k AGT 
- -t 7.535149710 -s 13 -d -1 -p cbr -e 210 -c 2 -a 0 -i 57 -k AGT
h -t 7.535149710 -s 13 -d -1 -p cbr -e 210 -c 2 -a 0 -i 57 -k AGT
+ -t 7.568749710 -s 13 -d -1 -p cbr -e 210 -c 2 -a 0 -i 58 -k AGT 
- -t 7.568749710 -s 13 -d -1 -p cbr -e 210 -c 2 -a 0 -i 58 -k AGT
h -t 7.568749710 -s 13 -d -1 -p cbr -e 210 -c 2 -a 0 -i 58 -k AGT
r -t 7.591153667 -s 21 -d 21 -p cbr -e 230 -c 2 -a 0 -i 46 -k AGT
+ -t 7.602349710 -s 13 -d -1 -p cbr -e 210 -c 2 -a 0 -i 59 -k AGT 
- -t 7.602349710 -s 13 -d -1 -p cbr -e 210 -c 2 -a 0 -i 59 -k AGT
h -t 7.602349710 -s 13 -d -1 -p cbr -e 210 -c 2 -a 0 -i 59 -k AGT
+ -t 7.635949710 -s 13 -d -1 -p cbr -e 210 -c 2 -a 0 -i 60 -k AGT 
- -t 7.635949710 -s 13 -d -1 -p cbr -e 210 -c 2 -a 0 -i 60 -k AGT
h -t 7.635949710 -s 13 -d -1 -p cbr -e 210 -c 2 -a 0 -i 60 -k AGT
r -t 7.651153667 -s 21 -d 21 -p cbr -e 230 -c 2 -a 0 -i 48 -k AGT
+ -t 7.669549710 -s 13 -d -1 -p cbr -e 210 -c 2 -a 0 -i 61 -k AGT 
- -t 7.669549710 -s 13 -d -1 -p cbr -e 210 -c 2 -a 0 -i 61 -k AGT
h -t 7.669549710 -s 13 -d -1 -p cbr -e 210 -c 2 -a 0 -i 61 -k AGT
+ -t 7.703149710 -s 13 -d -1 -p cbr -e 210 -c 2 -a 0 -i 62 -k AGT 
- -t 7.703149710 -s 13 -d -1 -p cbr -e 210 -c 2 -a 0 -i 62 -k AGT
h -t 7.703149710 -s 13 -d -1 -p cbr -e 210 -c 2 -a 0 -i 62 -k AGT
r -t 7.711153667 -s 21 -d 21 -p cbr -e 230 -c 2 -a 0 -i 50 -k AGT
+ -t 7.736749710 -s 13 -d -1 -p cbr -e 210 -c 2 -a 0 -i 63 -k AGT 
- -t 7.736749710 -s 13 -d -1 -p cbr -e 210 -c 2 -a 0 -i 63 -k AGT
h -t 7.736749710 -s 13 -d -1 -p cbr -e 210 -c 2 -a 0 -i 63 -k AGT
+ -t 7.770349710 -s 13 -d -1 -p cbr -e 210 -c 2 -a 0 -i 64 -k AGT 
- -t 7.770349710 -s 13 -d -1 -p cbr -e 210 -c 2 -a 0 -i 64 -k AGT
h -t 7.770349710 -s 13 -d -1 -p cbr -e 210 -c 2 -a 0 -i 64 -k AGT
r -t 7.771153667 -s 21 -d 21 -p cbr -e 230 -c 2 -a 0 -i 52 -k AGT
+ -t 7.803949710 -s 13 -d -1 -p cbr -e 210 -c 2 -a 0 -i 65 -k AGT 
- -t 7.803949710 -s 13 -d -1 -p cbr -e 210 -c 2 -a 0 -i 65 -k AGT
h -t 7.803949710 -s 13 -d -1 -p cbr -e 210 -c 2 -a 0 -i 65 -k AGT
r -t 7.831153667 -s 21 -d 21 -p cbr -e 230 -c 2 -a 0 -i 54 -k AGT
+ -t 7.837549710 -s 13 -d -1 -p cbr -e 210 -c 2 -a 0 -i 66 -k AGT 
- -t 7.837549710 -s 13 -d -1 -p cbr -e 210 -c 2 -a 0 -i 66 -k AGT
h -t 7.837549710 -s 13 -d -1 -p cbr -e 210 -c 2 -a 0 -i 66 -k AGT
+ -t 7.871149710 -s 13 -d -1 -p cbr -e 210 -c 2 -a 0 -i 67 -k AGT 
- -t 7.871149710 -s 13 -d -1 -p cbr -e 210 -c 2 -a 0 -i 67 -k AGT
h -t 7.871149710 -s 13 -d -1 -p cbr -e 210 -c 2 -a 0 -i 67 -k AGT
r -t 7.891153667 -s 21 -d 21 -p cbr -e 230 -c 2 -a 0 -i 56 -k AGT
+ -t 7.904749710 -s 13 -d -1 -p cbr -e 210 -c 2 -a 0 -i 68 -k AGT 
- -t 7.904749710 -s 13 -d -1 -p cbr -e 210 -c 2 -a 0 -i 68 -k AGT
h -t 7.904749710 -s 13 -d -1 -p cbr -e 210 -c 2 -a 0 -i 68 -k AGT
+ -t 7.938349710 -s 13 -d -1 -p cbr -e 210 -c 2 -a 0 -i 69 -k AGT 
- -t 7.938349710 -s 13 -d -1 -p cbr -e 210 -c 2 -a 0 -i 69 -k AGT
h -t 7.938349710 -s 13 -d -1 -p cbr -e 210 -c 2 -a 0 -i 69 -k AGT
r -t 7.951153667 -s 21 -d 21 -p cbr -e 230 -c 2 -a 0 -i 58 -k AGT
+ -t 7.971949710 -s 13 -d -1 -p cbr -e 210 -c 2 -a 0 -i 70 -k AGT 
- -t 7.971949710 -s 13 -d -1 -p cbr -e 210 -c 2 -a 0 -i 70 -k AGT
h -t 7.971949710 -s 13 -d -1 -p cbr -e 210 -c 2 -a 0 -i 70 -k AGT
+ -t 8.005549710 -s 13 -d -1 -p cbr -e 210 -c 2 -a 0 -i 71 -k AGT 
- -t 8.005549710 -s 13 -d -1 -p cbr -e 210 -c 2 -a 0 -i 71 -k AGT
h -t 8.005549710 -s 13 -d -1 -p cbr -e 210 -c 2 -a 0 -i 71 -k AGT
r -t 8.011153667 -s 21 -d 21 -p cbr -e 230 -c 2 -a 0 -i 60 -k AGT
+ -t 8.039149710 -s 13 -d -1 -p cbr -e 210 -c 2 -a 0 -i 72 -k AGT 
- -t 8.039149710 -s 13 -d -1 -p cbr -e 210 -c 2 -a 0 -i 72 -k AGT
h -t 8.039149710 -s 13 -d -1 -p cbr -e 210 -c 2 -a 0 -i 72 -k AGT
r -t 8.071153667 -s 21 -d 21 -p cbr -e 230 -c 2 -a 0 -i 62 -k AGT
+ -t 8.072749710 -s 13 -d -1 -p cbr -e 210 -c 2 -a 0 -i 73 -k AGT 
- -t 8.072749710 -s 13 -d -1 -p cbr -e 210 -c 2 -a 0 -i 73 -k AGT
h -t 8.072749710 -s 13 -d -1 -p cbr -e 210 -c 2 -a 0 -i 73 -k AGT
+ -t 8.106349710 -s 13 -d -1 -p cbr -e 210 -c 2 -a 0 -i 74 -k AGT 
- -t 8.106349710 -s 13 -d -1 -p cbr -e 210 -c 2 -a 0 -i 74 -k AGT
h -t 8.106349710 -s 13 -d -1 -p cbr -e 210 -c 2 -a 0 -i 74 -k AGT
r -t 8.131153667 -s 21 -d 21 -p cbr -e 230 -c 2 -a 0 -i 64 -k AGT
+ -t 8.139949710 -s 13 -d -1 -p cbr -e 210 -c 2 -a 0 -i 75 -k AGT 
- -t 8.139949710 -s 13 -d -1 -p cbr -e 210 -c 2 -a 0 -i 75 -k AGT
h -t 8.139949710 -s 13 -d -1 -p cbr -e 210 -c 2 -a 0 -i 75 -k AGT
+ -t 8.173549710 -s 13 -d -1 -p cbr -e 210 -c 2 -a 0 -i 76 -k AGT 
- -t 8.173549710 -s 13 -d -1 -p cbr -e 210 -c 2 -a 0 -i 76 -k AGT
h -t 8.173549710 -s 13 -d -1 -p cbr -e 210 -c 2 -a 0 -i 76 -k AGT
r -t 8.191153667 -s 21 -d 21 -p cbr -e 230 -c 2 -a 0 -i 66 -k AGT
+ -t 8.207149710 -s 13 -d -1 -p cbr -e 210 -c 2 -a 0 -i 77 -k AGT 
- -t 8.207149710 -s 13 -d -1 -p cbr -e 210 -c 2 -a 0 -i 77 -k AGT
h -t 8.207149710 -s 13 -d -1 -p cbr -e 210 -c 2 -a 0 -i 77 -k AGT
+ -t 8.240749710 -s 13 -d -1 -p cbr -e 210 -c 2 -a 0 -i 78 -k AGT 
- -t 8.240749710 -s 13 -d -1 -p cbr -e 210 -c 2 -a 0 -i 78 -k AGT
h -t 8.240749710 -s 13 -d -1 -p cbr -e 210 -c 2 -a 0 -i 78 -k AGT
r -t 8.251153667 -s 21 -d 21 -p cbr -e 230 -c 2 -a 0 -i 68 -k AGT
+ -t 8.274349710 -s 13 -d -1 -p cbr -e 210 -c 2 -a 0 -i 79 -k AGT 
- -t 8.274349710 -s 13 -d -1 -p cbr -e 210 -c 2 -a 0 -i 79 -k AGT
h -t 8.274349710 -s 13 -d -1 -p cbr -e 210 -c 2 -a 0 -i 79 -k AGT
+ -t 8.307949710 -s 13 -d -1 -p cbr -e 210 -c 2 -a 0 -i 80 -k AGT 
- -t 8.307949710 -s 13 -d -1 -p cbr -e 210 -c 2 -a 0 -i 80 -k AGT
h -t 8.307949710 -s 13 -d -1 -p cbr -e 210 -c 2 -a 0 -i 80 -k AGT
r -t 8.311153667 -s 21 -d 21 -p cbr -e 230 -c 2 -a 0 -i 70 -k AGT
+ -t 8.341549710 -s 13 -d -1 -p cbr -e 210 -c 2 -a 0 -i 81 -k AGT 
- -t 8.341549710 -s 13 -d -1 -p cbr -e 210 -c 2 -a 0 -i 81 -k AGT
h -t 8.341549710 -s 13 -d -1 -p cbr -e 210 -c 2 -a 0 -i 81 -k AGT
r -t 8.371153667 -s 21 -d 21 -p cbr -e 230 -c 2 -a 0 -i 72 -k AGT
+ -t 8.375149710 -s 13 -d -1 -p cbr -e 210 -c 2 -a 0 -i 82 -k AGT 
- -t 8.375149710 -s 13 -d -1 -p cbr -e 210 -c 2 -a 0 -i 82 -k AGT
h -t 8.375149710 -s 13 -d -1 -p cbr -e 210 -c 2 -a 0 -i 82 -k AGT
+ -t 8.408749710 -s 13 -d -1 -p cbr -e 210 -c 2 -a 0 -i 83 -k AGT 
- -t 8.408749710 -s 13 -d -1 -p cbr -e 210 -c 2 -a 0 -i 83 -k AGT
h -t 8.408749710 -s 13 -d -1 -p cbr -e 210 -c 2 -a 0 -i 83 -k AGT
r -t 8.431153667 -s 21 -d 21 -p cbr -e 230 -c 2 -a 0 -i 74 -k AGT
+ -t 8.442349710 -s 13 -d -1 -p cbr -e 210 -c 2 -a 0 -i 84 -k AGT 
- -t 8.442349710 -s 13 -d -1 -p cbr -e 210 -c 2 -a 0 -i 84 -k AGT
h -t 8.442349710 -s 13 -d -1 -p cbr -e 210 -c 2 -a 0 -i 84 -k AGT
+ -t 8.475949710 -s 13 -d -1 -p cbr -e 210 -c 2 -a 0 -i 85 -k AGT 
- -t 8.475949710 -s 13 -d -1 -p cbr -e 210 -c 2 -a 0 -i 85 -k AGT
h -t 8.475949710 -s 13 -d -1 -p cbr -e 210 -c 2 -a 0 -i 85 -k AGT
r -t 8.491153667 -s 21 -d 21 -p cbr -e 230 -c 2 -a 0 -i 76 -k AGT
+ -t 8.509549710 -s 13 -d -1 -p cbr -e 210 -c 2 -a 0 -i 86 -k AGT 
- -t 8.509549710 -s 13 -d -1 -p cbr -e 210 -c 2 -a 0 -i 86 -k AGT
h -t 8.509549710 -s 13 -d -1 -p cbr -e 210 -c 2 -a 0 -i 86 -k AGT
+ -t 8.543149710 -s 13 -d -1 -p cbr -e 210 -c 2 -a 0 -i 87 -k AGT 
- -t 8.543149710 -s 13 -d -1 -p cbr -e 210 -c 2 -a 0 -i 87 -k AGT
h -t 8.543149710 -s 13 -d -1 -p cbr -e 210 -c 2 -a 0 -i 87 -k AGT
+ -t 8.576749710 -s 13 -d -1 -p cbr -e 210 -c 2 -a 0 -i 88 -k AGT 
- -t 8.576749710 -s 13 -d -1 -p cbr -e 210 -c 2 -a 0 -i 88 -k AGT
h -t 8.576749710 -s 13 -d -1 -p cbr -e 210 -c 2 -a 0 -i 88 -k AGT
r -t 8.581153667 -s 21 -d 21 -p cbr -e 230 -c 2 -a 0 -i 78 -k AGT
+ -t 8.610349710 -s 13 -d -1 -p cbr -e 210 -c 2 -a 0 -i 89 -k AGT 
- -t 8.610349710 -s 13 -d -1 -p cbr -e 210 -c 2 -a 0 -i 89 -k AGT
h -t 8.610349710 -s 13 -d -1 -p cbr -e 210 -c 2 -a 0 -i 89 -k AGT
r -t 8.611153667 -s 21 -d 21 -p cbr -e 230 -c 2 -a 0 -i 80 -k AGT
+ -t 8.643949710 -s 13 -d -1 -p cbr -e 210 -c 2 -a 0 -i 90 -k AGT 
- -t 8.643949710 -s 13 -d -1 -p cbr -e 210 -c 2 -a 0 -i 90 -k AGT
h -t 8.643949710 -s 13 -d -1 -p cbr -e 210 -c 2 -a 0 -i 90 -k AGT
r -t 8.671153667 -s 21 -d 21 -p cbr -e 230 -c 2 -a 0 -i 82 -k AGT
+ -t 8.677549710 -s 13 -d -1 -p cbr -e 210 -c 2 -a 0 -i 91 -k AGT 
- -t 8.677549710 -s 13 -d -1 -p cbr -e 210 -c 2 -a 0 -i 91 -k AGT
h -t 8.677549710 -s 13 -d -1 -p cbr -e 210 -c 2 -a 0 -i 91 -k AGT
+ -t 8.711149710 -s 13 -d -1 -p cbr -e 210 -c 2 -a 0 -i 92 -k AGT 
- -t 8.711149710 -s 13 -d -1 -p cbr -e 210 -c 2 -a 0 -i 92 -k AGT
h -t 8.711149710 -s 13 -d -1 -p cbr -e 210 -c 2 -a 0 -i 92 -k AGT
r -t 8.731153667 -s 21 -d 21 -p cbr -e 230 -c 2 -a 0 -i 84 -k AGT
+ -t 8.744749710 -s 13 -d -1 -p cbr -e 210 -c 2 -a 0 -i 93 -k AGT 
- -t 8.744749710 -s 13 -d -1 -p cbr -e 210 -c 2 -a 0 -i 93 -k AGT
h -t 8.744749710 -s 13 -d -1 -p cbr -e 210 -c 2 -a 0 -i 93 -k AGT
+ -t 8.778349710 -s 13 -d -1 -p cbr -e 210 -c 2 -a 0 -i 94 -k AGT 
- -t 8.778349710 -s 13 -d -1 -p cbr -e 210 -c 2 -a 0 -i 94 -k AGT
h -t 8.778349710 -s 13 -d -1 -p cbr -e 210 -c 2 -a 0 -i 94 -k AGT
r -t 8.791153667 -s 21 -d 21 -p cbr -e 230 -c 2 -a 0 -i 86 -k AGT
+ -t 8.811949710 -s 13 -d -1 -p cbr -e 210 -c 2 -a 0 -i 95 -k AGT 
- -t 8.811949710 -s 13 -d -1 -p cbr -e 210 -c 2 -a 0 -i 95 -k AGT
h -t 8.811949710 -s 13 -d -1 -p cbr -e 210 -c 2 -a 0 -i 95 -k AGT
+ -t 8.845549710 -s 13 -d -1 -p cbr -e 210 -c 2 -a 0 -i 96 -k AGT 
- -t 8.845549710 -s 13 -d -1 -p cbr -e 210 -c 2 -a 0 -i 96 -k AGT
h -t 8.845549710 -s 13 -d -1 -p cbr -e 210 -c 2 -a 0 -i 96 -k AGT
r -t 8.851153667 -s 21 -d 21 -p cbr -e 230 -c 2 -a 0 -i 88 -k AGT
+ -t 8.879149710 -s 13 -d -1 -p cbr -e 210 -c 2 -a 0 -i 97 -k AGT 
- -t 8.879149710 -s 13 -d -1 -p cbr -e 210 -c 2 -a 0 -i 97 -k AGT
h -t 8.879149710 -s 13 -d -1 -p cbr -e 210 -c 2 -a 0 -i 97 -k AGT
r -t 8.911153667 -s 21 -d 21 -p cbr -e 230 -c 2 -a 0 -i 90 -k AGT
+ -t 8.912749710 -s 13 -d -1 -p cbr -e 210 -c 2 -a 0 -i 98 -k AGT 
- -t 8.912749710 -s 13 -d -1 -p cbr -e 210 -c 2 -a 0 -i 98 -k AGT
h -t 8.912749710 -s 13 -d -1 -p cbr -e 210 -c 2 -a 0 -i 98 -k AGT
+ -t 8.946349710 -s 13 -d -1 -p cbr -e 210 -c 2 -a 0 -i 99 -k AGT 
- -t 8.946349710 -s 13 -d -1 -p cbr -e 210 -c 2 -a 0 -i 99 -k AGT
h -t 8.946349710 -s 13 -d -1 -p cbr -e 210 -c 2 -a 0 -i 99 -k AGT
r -t 8.971153667 -s 21 -d 21 -p cbr -e 230 -c 2 -a 0 -i 92 -k AGT
+ -t 8.979949710 -s 13 -d -1 -p cbr -e 210 -c 2 -a 0 -i 100 -k AGT 
- -t 8.979949710 -s 13 -d -1 -p cbr -e 210 -c 2 -a 0 -i 100 -k AGT
h -t 8.979949710 -s 13 -d -1 -p cbr -e 210 -c 2 -a 0 -i 100 -k AGT
+ -t 9.013549710 -s 13 -d -1 -p cbr -e 210 -c 2 -a 0 -i 101 -k AGT 
- -t 9.013549710 -s 13 -d -1 -p cbr -e 210 -c 2 -a 0 -i 101 -k AGT
h -t 9.013549710 -s 13 -d -1 -p cbr -e 210 -c 2 -a 0 -i 101 -k AGT
r -t 9.031153667 -s 21 -d 21 -p cbr -e 230 -c 2 -a 0 -i 94 -k AGT
+ -t 9.047149710 -s 13 -d -1 -p cbr -e 210 -c 2 -a 0 -i 102 -k AGT 
- -t 9.047149710 -s 13 -d -1 -p cbr -e 210 -c 2 -a 0 -i 102 -k AGT
h -t 9.047149710 -s 13 -d -1 -p cbr -e 210 -c 2 -a 0 -i 102 -k AGT
+ -t 9.080749710 -s 13 -d -1 -p cbr -e 210 -c 2 -a 0 -i 103 -k AGT 
- -t 9.080749710 -s 13 -d -1 -p cbr -e 210 -c 2 -a 0 -i 103 -k AGT
h -t 9.080749710 -s 13 -d -1 -p cbr -e 210 -c 2 -a 0 -i 103 -k AGT
r -t 9.091153667 -s 21 -d 21 -p cbr -e 230 -c 2 -a 0 -i 96 -k AGT
+ -t 9.114349710 -s 13 -d -1 -p cbr -e 210 -c 2 -a 0 -i 104 -k AGT 
- -t 9.114349710 -s 13 -d -1 -p cbr -e 210 -c 2 -a 0 -i 104 -k AGT
h -t 9.114349710 -s 13 -d -1 -p cbr -e 210 -c 2 -a 0 -i 104 -k AGT
+ -t 9.147949710 -s 13 -d -1 -p cbr -e 210 -c 2 -a 0 -i 105 -k AGT 
- -t 9.147949710 -s 13 -d -1 -p cbr -e 210 -c 2 -a 0 -i 105 -k AGT
h -t 9.147949710 -s 13 -d -1 -p cbr -e 210 -c 2 -a 0 -i 105 -k AGT
r -t 9.151153667 -s 21 -d 21 -p cbr -e 230 -c 2 -a 0 -i 98 -k AGT
+ -t 9.181549710 -s 13 -d -1 -p cbr -e 210 -c 2 -a 0 -i 106 -k AGT 
- -t 9.181549710 -s 13 -d -1 -p cbr -e 210 -c 2 -a 0 -i 106 -k AGT
h -t 9.181549710 -s 13 -d -1 -p cbr -e 210 -c 2 -a 0 -i 106 -k AGT
r -t 9.211153667 -s 21 -d 21 -p cbr -e 230 -c 2 -a 0 -i 100 -k AGT
+ -t 9.215149710 -s 13 -d -1 -p cbr -e 210 -c 2 -a 0 -i 107 -k AGT 
- -t 9.215149710 -s 13 -d -1 -p cbr -e 210 -c 2 -a 0 -i 107 -k AGT
h -t 9.215149710 -s 13 -d -1 -p cbr -e 210 -c 2 -a 0 -i 107 -k AGT
+ -t 9.248749710 -s 13 -d -1 -p cbr -e 210 -c 2 -a 0 -i 108 -k AGT 
- -t 9.248749710 -s 13 -d -1 -p cbr -e 210 -c 2 -a 0 -i 108 -k AGT
h -t 9.248749710 -s 13 -d -1 -p cbr -e 210 -c 2 -a 0 -i 108 -k AGT
r -t 9.271153667 -s 21 -d 21 -p cbr -e 230 -c 2 -a 0 -i 102 -k AGT
+ -t 9.282349710 -s 13 -d -1 -p cbr -e 210 -c 2 -a 0 -i 109 -k AGT 
- -t 9.282349710 -s 13 -d -1 -p cbr -e 210 -c 2 -a 0 -i 109 -k AGT
h -t 9.282349710 -s 13 -d -1 -p cbr -e 210 -c 2 -a 0 -i 109 -k AGT
+ -t 9.315949710 -s 13 -d -1 -p cbr -e 210 -c 2 -a 0 -i 110 -k AGT 
- -t 9.315949710 -s 13 -d -1 -p cbr -e 210 -c 2 -a 0 -i 110 -k AGT
h -t 9.315949710 -s 13 -d -1 -p cbr -e 210 -c 2 -a 0 -i 110 -k AGT
r -t 9.331153667 -s 21 -d 21 -p cbr -e 230 -c 2 -a 0 -i 104 -k AGT
+ -t 9.349549710 -s 13 -d -1 -p cbr -e 210 -c 2 -a 0 -i 111 -k AGT 
- -t 9.349549710 -s 13 -d -1 -p cbr -e 210 -c 2 -a 0 -i 111 -k AGT
h -t 9.349549710 -s 13 -d -1 -p cbr -e 210 -c 2 -a 0 -i 111 -k AGT
+ -t 9.383149710 -s 13 -d -1 -p cbr -e 210 -c 2 -a 0 -i 112 -k AGT 
- -t 9.383149710 -s 13 -d -1 -p cbr -e 210 -c 2 -a 0 -i 112 -k AGT
h -t 9.383149710 -s 13 -d -1 -p cbr -e 210 -c 2 -a 0 -i 112 -k AGT
r -t 9.391153667 -s 21 -d 21 -p cbr -e 230 -c 2 -a 0 -i 106 -k AGT
+ -t 9.416749710 -s 13 -d -1 -p cbr -e 210 -c 2 -a 0 -i 113 -k AGT 
- -t 9.416749710 -s 13 -d -1 -p cbr -e 210 -c 2 -a 0 -i 113 -k AGT
h -t 9.416749710 -s 13 -d -1 -p cbr -e 210 -c 2 -a 0 -i 113 -k AGT
+ -t 9.450349710 -s 13 -d -1 -p cbr -e 210 -c 2 -a 0 -i 114 -k AGT 
- -t 9.450349710 -s 13 -d -1 -p cbr -e 210 -c 2 -a 0 -i 114 -k AGT
h -t 9.450349710 -s 13 -d -1 -p cbr -e 210 -c 2 -a 0 -i 114 -k AGT
r -t 9.451153667 -s 21 -d 21 -p cbr -e 230 -c 2 -a 0 -i 108 -k AGT
+ -t 9.483949710 -s 13 -d -1 -p cbr -e 210 -c 2 -a 0 -i 115 -k AGT 
- -t 9.483949710 -s 13 -d -1 -p cbr -e 210 -c 2 -a 0 -i 115 -k AGT
h -t 9.483949710 -s 13 -d -1 -p cbr -e 210 -c 2 -a 0 -i 115 -k AGT
r -t 9.511153667 -s 21 -d 21 -p cbr -e 230 -c 2 -a 0 -i 110 -k AGT
+ -t 9.517549710 -s 13 -d -1 -p cbr -e 210 -c 2 -a 0 -i 116 -k AGT 
- -t 9.517549710 -s 13 -d -1 -p cbr -e 210 -c 2 -a 0 -i 116 -k AGT
h -t 9.517549710 -s 13 -d -1 -p cbr -e 210 -c 2 -a 0 -i 116 -k AGT
+ -t 9.551149710 -s 13 -d -1 -p cbr -e 210 -c 2 -a 0 -i 117 -k AGT 
- -t 9.551149710 -s 13 -d -1 -p cbr -e 210 -c 2 -a 0 -i 117 -k AGT
h -t 9.551149710 -s 13 -d -1 -p cbr -e 210 -c 2 -a 0 -i 117 -k AGT
r -t 9.571153667 -s 21 -d 21 -p cbr -e 230 -c 2 -a 0 -i 112 -k AGT
+ -t 9.584749710 -s 13 -d -1 -p cbr -e 210 -c 2 -a 0 -i 118 -k AGT 
- -t 9.584749710 -s 13 -d -1 -p cbr -e 210 -c 2 -a 0 -i 118 -k AGT
h -t 9.584749710 -s 13 -d -1 -p cbr -e 210 -c 2 -a 0 -i 118 -k AGT
+ -t 9.618349710 -s 13 -d -1 -p cbr -e 210 -c 2 -a 0 -i 119 -k AGT 
- -t 9.618349710 -s 13 -d -1 -p cbr -e 210 -c 2 -a 0 -i 119 -k AGT
h -t 9.618349710 -s 13 -d -1 -p cbr -e 210 -c 2 -a 0 -i 119 -k AGT
r -t 9.631153667 -s 21 -d 21 -p cbr -e 230 -c 2 -a 0 -i 114 -k AGT
+ -t 9.651949710 -s 13 -d -1 -p cbr -e 210 -c 2 -a 0 -i 120 -k AGT 
- -t 9.651949710 -s 13 -d -1 -p cbr -e 210 -c 2 -a 0 -i 120 -k AGT
h -t 9.651949710 -s 13 -d -1 -p cbr -e 210 -c 2 -a 0 -i 120 -k AGT
+ -t 9.685549710 -s 13 -d -1 -p cbr -e 210 -c 2 -a 0 -i 121 -k AGT 
- -t 9.685549710 -s 13 -d -1 -p cbr -e 210 -c 2 -a 0 -i 121 -k AGT
h -t 9.685549710 -s 13 -d -1 -p cbr -e 210 -c 2 -a 0 -i 121 -k AGT
r -t 9.691153667 -s 21 -d 21 -p cbr -e 230 -c 2 -a 0 -i 116 -k AGT
+ -t 9.719149710 -s 13 -d -1 -p cbr -e 210 -c 2 -a 0 -i 122 -k AGT 
- -t 9.719149710 -s 13 -d -1 -p cbr -e 210 -c 2 -a 0 -i 122 -k AGT
h -t 9.719149710 -s 13 -d -1 -p cbr -e 210 -c 2 -a 0 -i 122 -k AGT