s 57.933113239 _0_ AGT  --- 1 0 cbr 210 [0 0 0 0] ------- [0:0 10:0 32 0] [0] 0 0
s 57.951779905 _0_ AGT  --- 1 1 cbr 210 [0 0 0 0] ------- [0:0 10:0 32 0] [1] 0 0
s 57.970446572 _0_ AGT  --- 1 2 cbr 210 [0 0 0 0] ------- [0:0 10:0 32 0] [2] 0 0
s 57.989113239 _0_ AGT  --- 1 3 cbr 210 [0 0 0 0] ------- [0:0 10:0 32 0] [3] 0 0
s 58.007779905 _0_ AGT  --- 1 4 cbr 210 [0 0 0 0] ------- [0:0 10:0 32 0] [4] 0 0
s 58.026446572 _0_ AGT  --- 1 5 cbr 210 [0 0 0 0] ------- [0:0 10:0 32 0] [5] 0 0
s 58.045113239 _0_ AGT  --- 1 6 cbr 210 [0 0 0 0] ------- [0:0 10:0 32 0] [6] 0 0
s 58.063779905 _0_ AGT  --- 1 7 cbr 210 [0 0 0 0] ------- [0:0 10:0 32 0] [7] 0 0
s 58.082446572 _0_ AGT  --- 1 8 cbr 210 [0 0 0 0] ------- [0:0 10:0 32 0] [8] 0 0
s 58.101113239 _0_ AGT  --- 1 9 cbr 210 [0 0 0 0] ------- [0:0 10:0 32 0] [9] 0 0
s 58.119779905 _0_ AGT  --- 1 10 cbr 210 [0 0 0 0] ------- [0:0 10:0 32 0] [10] 0 0
s 58.138446572 _0_ AGT  --- 1 11 cbr 210 [0 0 0 0] ------- [0:0 10:0 32 0] [11] 0 0
s 58.157113239 _0_ AGT  --- 1 12 cbr 210 [0 0 0 0] ------- [0:0 10:0 32 0] [12] 0 0
s 58.175779905 _0_ AGT  --- 1 13 cbr 210 [0 0 0 0] ------- [0:0 10:0 32 0] [13] 0 0
s 58.194446572 _0_ AGT  --- 1 14 cbr 210 [0 0 0 0] ------- [0:0 10:0 32 0] [14] 0 0
s 58.213113239 _0_ AGT  --- 1 15 cbr 210 [0 0 0 0] ------- [0:0 10:0 32 0] [15] 0 0
s 58.231779905 _0_ AGT  --- 1 16 cbr 210 [0 0 0 0] ------- [0:0 10:0 32 0] [16] 0 0
s 58.250446572 _0_ AGT  --- 1 17 cbr 210 [0 0 0 0] ------- [0:0 10:0 32 0] [17] 0 0
s 58.269113239 _0_ AGT  --- 1 18 cbr 210 [0 0 0 0] ------- [0:0 10:0 32 0] [18] 0 0
s 58.287779905 _0_ AGT  --- 1 19 cbr 210 [0 0 0 0] ------- [0:0 10:0 32 0] [19] 0 0
s 58.306446572 _0_ AGT  --- 1 20 cbr 210 [0 0 0 0] ------- [0:0 10:0 32 0] [20] 0 0
s 58.325113239 _0_ AGT  --- 1 21 cbr 210 [0 0 0 0] ------- [0:0 10:0 32 0] [21] 0 0
s 58.343779905 _0_ AGT  --- 1 22 cbr 210 [0 0 0 0] ------- [0:0 10:0 32 0] [22] 0 0
s 58.362446572 _0_ AGT  --- 1 23 cbr 210 [0 0 0 0] ------- [0:0 10:0 32 0] [23] 0 0
s 58.381113239 _0_ AGT  --- 1 24 cbr 210 [0 0 0 0] ------- [0:0 10:0 32 0] [24] 0 0
s 58.399779905 _0_ AGT  --- 1 25 cbr 210 [0 0 0 0] ------- [0:0 10:0 32 0] [25] 0 0
s 58.418446572 _0_ AGT  --- 1 26 cbr 210 [0 0 0 0] ------- [0:0 10:0 32 0] [26] 0 0
s 58.437113239 _0_ AGT  --- 1 27 cbr 210 [0 0 0 0] ------- [0:0 10:0 32 0] [27] 0 0
s 58.455779905 _0_ AGT  --- 1 28 cbr 210 [0 0 0 0] ------- [0:0 10:0 32 0] [28] 0 0
s 58.474446572 _0_ AGT  --- 1 29 cbr 210 [0 0 0 0] ------- [0:0 10:0 32 0] [29] 0 0
s 58.493113239 _0_ AGT  --- 1 30 cbr 210 [0 0 0 0] ------- [0:0 10:0 32 0] [30] 0 0
s 58.511779905 _0_ AGT  --- 1 31 cbr 210 [0 0 0 0] ------- [0:0 10:0 32 0] [31] 0 0
s 58.530446572 _0_ AGT  --- 1 32 cbr 210 [0 0 0 0] ------- [0:0 10:0 32 0] [32] 0 0
s 58.549113239 _0_ AGT  --- 1 33 cbr 210 [0 0 0 0] ------- [0:0 10:0 32 0] [33] 0 0
s 58.567779905 _0_ AGT  --- 1 34 cbr 210 [0 0 0 0] ------- [0:0 10:0 32 0] [34] 0 0
s 58.586446572 _0_ AGT  --- 1 35 cbr 210 [0 0 0 0] ------- [0:0 10:0 32 0] [35] 0 0
s 58.605113239 _0_ AGT  --- 1 36 cbr 210 [0 0 0 0] ------- [0:0 10:0 32 0] [36] 0 0
r 58.615153667 _10_ AGT  --- 1 0 cbr 230 [5 a 5 0] ------- [0:0 10:0 29 10] [0] 2 0
s 58.623779905 _0_ AGT  --- 1 37 cbr 210 [0 0 0 0] ------- [0:0 10:0 32 0] [37] 0 0
s 58.642446572 _0_ AGT  --- 1 38 cbr 210 [0 0 0 0] ------- [0:0 10:0 32 0] [38] 0 0
s 58.661113239 _0_ AGT  --- 1 39 cbr 210 [0 0 0 0] ------- [0:0 10:0 32 0] [39] 0 0
r 58.675153667 _10_ AGT  --- 1 1 cbr 230 [5 a 5 0] ------- [0:0 10:0 29 10] [1] 2 0
s 58.679779905 _0_ AGT  --- 1 40 cbr 210 [0 0 0 0] ------- [0:0 10:0 32 0] [40] 0 0
s 58.698446572 _0_ AGT  --- 1 41 cbr 210 [0 0 0 0] ------- [0:0 10:0 32 0] [41] 0 0
s 58.717113239 _0_ AGT  --- 1 42 cbr 210 [0 0 0 0] ------- [0:0 10:0 32 0] [42] 0 0
r 58.735153667 _10_ AGT  --- 1 32 cbr 230 [5 a 5 0] ------- [0:0 10:0 29 10] [32] 2 0
s 58.735779905 _0_ AGT  --- 1 43 cbr 210 [0 0 0 0] ------- [0:0 10:0 32 0] [43] 0 0
s 58.754446572 _0_ AGT  --- 1 44 cbr 210 [0 0 0 0] ------- [0:0 10:0 32 0] [44] 0 0
s 58.773113239 _0_ AGT  --- 1 45 cbr 210 [0 0 0 0] ------- [0:0 10:0 32 0] [45] 0 0
s 58.791779905 _0_ AGT  --- 1 46 cbr 210 [0 0 0 0] ------- [0:0 10:0 32 0] [46] 0 0
r 58.795153667 _10_ AGT  --- 1 2 cbr 230 [5 a 5 0] ------- [0:0 10:0 29 10] [2] 2 0
s 58.810446572 _0_ AGT  --- 1 47 cbr 210 [0 0 0 0] ------- [0:0 10:0 32 0] [47] 0 0
s 58.829113239 _0_ AGT  --- 1 48 cbr 210 [0 0 0 0] ------- [0:0 10:0 32 0] [48] 0 0
s 58.847779905 _0_ AGT  --- 1 49 cbr 210 [0 0 0 0] ------- [0:0 10:0 32 0] [49] 0 0
r 58.855153667 _10_ AGT  --- 1 3 cbr 230 [5 a 5 0] ------- [0:0 10:0 29 10] [3] 2 0
s 58.866446572 _0_ AGT  --- 1 50 cbr 210 [0 0 0 0] ------- [0:0 10:0 32 0] [50] 0 0
s 58.885113239 _0_ AGT  --- 1 51 cbr 210 [0 0 0 0] ------- [0:0 10:0 32 0] [51] 0 0
s 58.903779905 _0_ AGT  --- 1 52 cbr 210 [0 0 0 0] ------- [0:0 10:0 32 0] [52] 0 0
r 58.915153667 _10_ AGT  --- 1 33 cbr 230 [5 a 5 0] ------- [0:0 10:0 29 10] [33] 2 0
s 58.922446572 _0_ AGT  --- 1 53 cbr 210 [0 0 0 0] ------- [0:0 10:0 32 0] [53] 0 0
s 58.941113239 _0_ AGT  --- 1 54 cbr 210 [0 0 0 0] ------- [0:0 10:0 32 0] [54] 0 0
s 58.959779905 _0_ AGT  --- 1 55 cbr 210 [0 0 0 0] ------- [0:0 10:0 32 0] [55] 0 0
r 58.975153667 _10_ AGT  --- 1 4 cbr 230 [5 a 5 0] ------- [0:0 10:0 29 10] [4] 2 0
s 58.978446572 _0_ AGT  --- 1 56 cbr 210 [0 0 0 0] ------- [0:0 10:0 32 0] [56] 0 0
s 58.997113239 _0_ AGT  --- 1 57 cbr 210 [0 0 0 0] ------- [0:0 10:0 32 0] [57] 0 0
s 59.015779905 _0_ AGT  --- 1 58 cbr 210 [0 0 0 0] ------- [0:0 10:0 32 0] [58] 0 0
s 59.034446572 _0_ AGT  --- 1 59 cbr 210 [0 0 0 0] ------- [0:0 10:0 32 0] [59] 0 0
r 59.035153667 _10_ AGT  --- 1 5 cbr 230 [5 a 5 0] ------- [0:0 10:0 29 10] [5] 2 0
s 59.053113239 _0_ AGT  --- 1 60 cbr 210 [0 0 0 0] ------- [0:0 10:0 32 0] [60] 0 0
s 59.071779905 _0_ AGT  --- 1 61 cbr 210 [0 0 0 0] ------- [0:0 10:0 32 0] [61] 0 0
s 59.090446572 _0_ AGT  --- 1 62 cbr 210 [0 0 0 0] ------- [0:0 10:0 32 0] [62] 0 0
r 59.095153667 _10_ AGT  --- 1 34 cbr 230 [5 a 5 0] ------- [0:0 10:0 29 10] [34] 2 0
s 59.109113239 _0_ AGT  --- 1 63 cbr 210 [0 0 0 0] ------- [0:0 10:0 32 0] [63] 0 0
s 59.127779905 _0_ AGT  --- 1 64 cbr 210 [0 0 0 0] ------- [0:0 10:0 32 0] [64] 0 0
s 59.146446572 _0_ AGT  --- 1 65 cbr 210 [0 0 0 0] ------- [0:0 10:0 32 0] [65] 0 0
r 59.155153667 _10_ AGT  --- 1 6 cbr 230 [5 a 5 0] ------- [0:0 10:0 29 10] [6] 2 0
s 59.165113239 _0_ AGT  --- 1 66 cbr 210 [0 0 0 0] ------- [0:0 10:0 32 0] [66] 0 0
s 59.183779905 _0_ AGT  --- 1 67 cbr 210 [0 0 0 0] ------- [0:0 10:0 32 0] [67] 0 0
s 59.202446572 _0_ AGT  --- 1 68 cbr 210 [0 0 0 0] ------- [0:0 10:0 32 0] [68] 0 0
r 59.215153667 _10_ AGT  --- 1 7 cbr 230 [5 a 5 0] ------- [0:0 10:0 29 10] [7] 2 0
s 59.221113239 _0_ AGT  --- 1 69 cbr 210 [0 0 0 0] ------- [0:0 10:0 32 0] [69] 0 0
s 59.239779905 _0_ AGT  --- 1 70 cbr 210 [0 0 0 0] ------- [0:0 10:0 32 0] [70] 0 0
s 59.258446572 _0_ AGT  --- 1 71 cbr 210 [0 0 0 0] ------- [0:0 10:0 32 0] [71] 0 0
r 59.275153667 _10_ AGT  --- 1 35 cbr 230 [5 a 5 0] ------- [0:0 10:0 29 10] [35] 2 0
s 59.277113239 _0_ AGT  --- 1 72 cbr 210 [0 0 0 0] ------- [0:0 10:0 32 0] [72] 0 0
s 59.295779905 _0_ AGT  --- 1 73 cbr 210 [0 0 0 0] ------- [0:0 10:0 32 0] [73] 0 0
s 59.314446572 _0_ AGT  --- 1 74 cbr 210 [0 0 0 0] ------- [0:0 10:0 32 0] [74] 0 0
s 59.333113239 _0_ AGT  --- 1 75 cbr 210 [0 0 0 0] ------- [0:0 10:0 32 0] [75] 0 0
r 59.335153667 _10_ AGT  --- 1 8 cbr 230 [5 a 5 0] ------- [0:0 10:0 29 10] [8] 2 0
s 59.351779905 _0_ AGT  --- 1 76 cbr 210 [0 0 0 0] ------- [0:0 10:0 32 0] [76] 0 0
s 59.370446572 _0_ AGT  --- 1 77 cbr 210 [0 0 0 0] ------- [0:0 10:0 32 0] [77] 0 0
s 59.389113239 _0_ AGT  --- 1 78 cbr 210 [0 0 0 0] ------- [0:0 10:0 32 0] [78] 0 0
r 59.395153667 _10_ AGT  --- 1 9 cbr 230 [5 a 5 0] ------- [0:0 10:0 29 10] [9] 2 0
s 59.407779905 _0_ AGT  --- 1 79 cbr 210 [0 0 0 0] ------- [0:0 10:0 32 0] [79] 0 0
s 59.426446572 _0_ AGT  --- 1 80 cbr 210 [0 0 0 0] ------- [0:0 10:0 32 0] [80] 0 0
s 59.445113239 _0_ AGT  --- 1 81 cbr 210 [0 0 0 0] ------- [0:0 10:0 32 0] [81] 0 0
r 59.455153667 _10_ AGT  --- 1 36 cbr 230 [5 a 5 0] ------- [0:0 10:0 29 10] [36] 2 0
s 59.463779905 _0_ AGT  --- 1 82 cbr 210 [0 0 0 0] ------- [0:0 10:0 32 0] [82] 0 0
s 59.482446572 _0_ AGT  --- 1 83 cbr 210 [0 0 0 0] ------- [0:0 10:0 32 0] [83] 0 0
s 59.501113239 _0_ AGT  --- 1 84 cbr 210 [0 0 0 0] ------- [0:0 10:0 32 0] [84] 0 0
r 59.515153667 _10_ AGT  --- 1 10 cbr 230 [5 a 5 0] ------- [0:0 10:0 29 10] [10] 2 0
s 59.519779905 _0_ AGT  --- 1 85 cbr 210 [0 0 0 0] ------- [0:0 10:0 32 0] [85] 0 0
s 59.538446572 _0_ AGT  --- 1 86 cbr 210 [0 0 0 0] ------- [0:0 10:0 32 0] [86] 0 0
s 59.557113239 _0_ AGT  --- 1 87 cbr 210 [0 0 0 0] ------- [0:0 10:0 32 0] [87] 0 0
r 59.575153667 _10_ AGT  --- 1 11 cbr 230 [5 a 5 0] ------- [0:0 10:0 29 10] [11] 2 0
s 59.575779905 _0_ AGT  --- 1 88 cbr 210 [0 0 0 0] ------- [0:0 10:0 32 0] [88] 0 0
s 59.594446572 _0_ AGT  --- 1 89 cbr 210 [0 0 0 0] ------- [0:0 10:0 32 0] [89] 0 0
s 59.613113239 _0_ AGT  --- 1 90 cbr 210 [0 0 0 0] ------- [0:0 10:0 32 0] [90] 0 0
s 59.631779905 _0_ AGT  --- 1 91 cbr 210 [0 0 0 0] ------- [0:0 10:0 32 0] [91] 0 0
r 59.635153667 _10_ AGT  --- 1 37 cbr 230 [5 a 5 0] ------- [0:0 10:0 29 10] [37] 2 0
s 59.650446572 _0_ AGT  --- 1 92 cbr 210 [0 0 0 0] ------- [0:0 10:0 32 0] [92] 0 0
s 59.669113239 _0_ AGT  --- 1 93 cbr 210 [0 0 0 0] ------- [0:0 10:0 32 0] [93] 0 0
s 59.687779905 _0_ AGT  --- 1 94 cbr 210 [0 0 0 0] ------- [0:0 10:0 32 0] [94] 0 0
r 59.695153667 _10_ AGT  --- 1 12 cbr 230 [5 a 5 0] ------- [0:0 10:0 29 10] [12] 2 0
s 59.706446572 _0_ AGT  --- 1 95 cbr 210 [0 0 0 0] ------- [0:0 10:0 32 0] [95] 0 0
s 59.725113239 _0_ AGT  --- 1 96 cbr 210 [0 0 0 0] ------- [0:0 10:0 32 0] [96] 0 0
s 59.743779905 _0_ AGT  --- 1 97 cbr 210 [0 0 0 0] ------- [0:0 10:0 32 0] [97] 0 0
r 59.755153667 _10_ AGT  --- 1 38 cbr 230 [5 a 5 0] ------- [0:0 10:0 29 10] [38] 2 0
s 59.762446572 _0_ AGT  --- 1 98 cbr 210 [0 0 0 0] ------- [0:0 10:0 32 0] [98] 0 0
s 59.781113239 _0_ AGT  --- 1 99 cbr 210 [0 0 0 0] ------- [0:0 10:0 32 0] [99] 0 0
s 59.799779905 _0_ AGT  --- 1 100 cbr 210 [0 0 0 0] ------- [0:0 10:0 32 0] [100] 0 0
r 59.815153667 _10_ AGT  --- 1 13 cbr 230 [5 a 5 0] ------- [0:0 10:0 29 10] [13] 2 0
s 59.818446572 _0_ AGT  --- 1 101 cbr 210 [0 0 0 0] ------- [0:0 10:0 32 0] [101] 0 0
s 59.837113239 _0_ AGT  --- 1 102 cbr 210 [0 0 0 0] ------- [0:0 10:0 32 0] [102] 0 0
s 59.855779905 _0_ AGT  --- 1 103 cbr 210 [0 0 0 0] ------- [0:0 10:0 32 0] [103] 0 0
s 59.874446572 _0_ AGT  --- 1 104 cbr 210 [0 0 0 0] ------- [0:0 10:0 32 0] [104] 0 0
r 59.875153667 _10_ AGT  --- 1 14 cbr 230 [5 a 5 0] ------- [0:0 10:0 29 10] [14] 2 0
s 59.893113239 _0_ AGT  --- 1 105 cbr 210 [0 0 0 0] ------- [0:0 10:0 32 0] [105] 0 0
s 59.911779905 _0_ AGT  --- 1 106 cbr 210 [0 0 0 0] ------- [0:0 10:0 32 0] [106] 0 0
s 59.930446572 _0_ AGT  --- 1 107 cbr 210 [0 0 0 0] ------- [0:0 10:0 32 0] [107] 0 0
r 59.935153667 _10_ AGT  --- 1 39 cbr 230 [5 a 5 0] ------- [0:0 10:0 29 10] [39] 2 0
s 59.949113239 _0_ AGT  --- 1 108 cbr 210 [0 0 0 0] ------- [0:0 10:0 32 0] [108] 0 0
s 59.967779905 _0_ AGT  --- 1 109 cbr 210 [0 0 0 0] ------- [0:0 10:0 32 0] [109] 0 0
s 59.986446572 _0_ AGT  --- 1 110 cbr 210 [0 0 0 0] ------- [0:0 10:0 32 0] [110] 0 0
r 59.995153667 _10_ AGT  --- 1 15 cbr 230 [5 a 5 0] ------- [0:0 10:0 29 10] [15] 2 0
s 60.005113239 _0_ AGT  --- 1 111 cbr 210 [0 0 0 0] ------- [0:0 10:0 32 0] [111] 0 0
s 60.023779905 _0_ AGT  --- 1 112 cbr 210 [0 0 0 0] ------- [0:0 10:0 32 0] [112] 0 0
s 60.042446572 _0_ AGT  --- 1 113 cbr 210 [0 0 0 0] ------- [0:0 10:0 32 0] [113] 0 0
r 60.055153667 _10_ AGT  --- 1 16 cbr 230 [5 a 5 0] ------- [0:0 10:0 29 10] [16] 2 0
s 60.061113239 _0_ AGT  --- 1 114 cbr 210 [0 0 0 0] ------- [0:0 10:0 32 0] [114] 0 0
s 60.079779905 _0_ AGT  --- 1 115 cbr 210 [0 0 0 0] ------- [0:0 10:0 32 0] [115] 0 0
s 60.098446572 _0_ AGT  --- 1 116 cbr 210 [0 0 0 0] ------- [0:0 10:0 32 0] [116] 0 0
r 60.115153667 _10_ AGT  --- 1 40 cbr 230 [5 a 5 0] ------- [0:0 10:0 29 10] [40] 2 0
s 60.117113239 _0_ AGT  --- 1 117 cbr 210 [0 0 0 0] ------- [0:0 10:0 32 0] [117] 0 0
s 60.135779905 _0_ AGT  --- 1 118 cbr 210 [0 0 0 0] ------- [0:0 10:0 32 0] [118] 0 0
s 60.154446572 _0_ AGT  --- 1 119 cbr 210 [0 0 0 0] ------- [0:0 10:0 32 0] [119] 0 0
s 60.173113239 _0_ AGT  --- 1 120 cbr 210 [0 0 0 0] ------- [0:0 10:0 32 0] [120] 0 0
r 60.175153667 _10_ AGT  --- 1 17 cbr 230 [5 a 5 0] ------- [0:0 10:0 29 10] [17] 2 0
s 60.191779905 _0_ AGT  --- 1 121 cbr 210 [0 0 0 0] ------- [0:0 10:0 32 0] [121] 0 0
s 60.210446572 _0_ AGT  --- 1 122 cbr 210 [0 0 0 0] ------- [0:0 10:0 32 0] [122] 0 0
s 60.229113239 _0_ AGT  --- 1 123 cbr 210 [0 0 0 0] ------- [0:0 10:0 32 0] [123] 0 0
r 60.235153667 _10_ AGT  --- 1 18 cbr 230 [5 a 5 0] ------- [0:0 10:0 29 10] [18] 2 0
s 60.247779905 _0_ AGT  --- 1 124 cbr 210 [0 0 0 0] ------- [0:0 10:0 32 0] [124] 0 0
s 60.266446572 _0_ AGT  --- 1 125 cbr 210 [0 0 0 0] ------- [0:0 10:0 32 0] [125] 0 0
s 60.285113239 _0_ AGT  --- 1 126 cbr 210 [0 0 0 0] ------- [0:0 10:0 32 0] [126] 0 0
r 60.295153667 _10_ AGT  --- 1 41 cbr 230 [5 a 5 0] ------- [0:0 10:0 29 10] [41] 2 0
s 60.303779905 _0_ AGT  --- 1 127 cbr 210 [0 0 0 0] ------- [0:0 10:0 32 0] [127] 0 0
s 60.322446572 _0_ AGT  --- 1 128 cbr 210 [0 0 0 0] ------- [0:0 10:0 32 0] [128] 0 0
s 60.341113239 _0_ AGT  --- 1 129 cbr 210 [0 0 0 0] ------- [0:0 10:0 32 0] [129] 0 0
r 60.355153667 _10_ AGT  --- 1 19 cbr 230 [5 a 5 0] ------- [0:0 10:0 29 10] [19] 2 0
s 60.359779905 _0_ AGT  --- 1 130 cbr 210 [0 0 0 0] ------- [0:0 10:0 32 0] [130] 0 0
D 60.359804905 _0_ IFQ  --- 1 130 cbr 230 [0 5 0 0] ------- [0:0 10:0 30 5] [130] 0 0
s 60.378446572 _0_ AGT  --- 1 131 cbr 210 [0 0 0 0] ------- [0:0 10:0 32 0] [131] 0 0
s 60.397113239 _0_ AGT  --- 1 132 cbr 210 [0 0 0 0] ------- [0:0 10:0 32 0] [132] 0 0
D 60.397138239 _0_ IFQ  --- 1 132 cbr 230 [0 5 0 0] ------- [0:0 10:0 30 5] [132] 0 0
r 60.415153667 _10_ AGT  --- 1 20 cbr 230 [5 a 5 0] ------- [0:0 10:0 29 10] [20] 2 0
s 60.415779905 _0_ AGT  --- 1 133 cbr 210 [0 0 0 0] ------- [0:0 10:0 32 0] [133] 0 0
D 60.415804905 _0_ IFQ  --- 1 133 cbr 230 [0 5 0 0] ------- [0:0 10:0 30 5] [133] 0 0
s 60.434446572 _0_ AGT  --- 1 134 cbr 210 [0 0 0 0] ------- [0:0 10:0 32 0] [134] 0 0
s 60.453113239 _0_ AGT  --- 1 135 cbr 210 [0 0 0 0] ------- [0:0 10:0 32 0] [135] 0 0
D 60.453138239 _0_ IFQ  --- 1 135 cbr 230 [0 5 0 0] ------- [0:0 10:0 30 5] [135] 0 0
s 60.471779905 _0_ AGT  --- 1 136 cbr 210 [0 0 0 0] ------- [0:0 10:0 32 0] [136] 0 0
D 60.471804905 _0_ IFQ  --- 1 136 cbr 230 [0 5 0 0] ------- [0:0 10:0 30 5] [136] 0 0
r 60.475153667 _10_ AGT  --- 1 42 cbr 230 [5 a 5 0] ------- [0:0 10:0 29 10] [42] 2 0
s 60.490446572 _0_ AGT  --- 1 137 cbr 210 [0 0 0 0] ------- [0:0 10:0 32 0] [137] 0 0
s 60.509113239 _0_ AGT  --- 1 138 cbr 210 [0 0 0 0] ------- [0:0 10:0 32 0] [138] 0 0
D 60.509138239 _0_ IFQ  --- 1 138 cbr 230 [0 5 0 0] ------- [0:0 10:0 30 5] [138] 0 0
s 60.527779905 _0_ AGT  --- 1 139 cbr 210 [0 0 0 0] ------- [0:0 10:0 32 0] [139] 0 0
D 60.527804905 _0_ IFQ  --- 1 139 cbr 230 [0 5 0 0] ------- [0:0 10:0 30 5] [139] 0 0
r 60.535153667 _10_ AGT  --- 1 21 cbr 230 [5 a 5 0] ------- [0:0 10:0 29 10] [21] 2 0
s 60.546446572 _0_ AGT  --- 1 140 cbr 210 [0 0 0 0] ------- [0:0 10:0 32 0] [140] 0 0
s 60.565113239 _0_ AGT  --- 1 141 cbr 210 [0 0 0 0] ------- [0:0 10:0 32 0] [141] 0 0
D 60.565138239 _0_ IFQ  --- 1 141 cbr 230 [0 5 0 0] ------- [0:0 10:0 30 5] [141] 0 0
s 60.583779905 _0_ AGT  --- 1 142 cbr 210 [0 0 0 0] ------- [0:0 10:0 32 0] [142] 0 0
D 60.583804905 _0_ IFQ  --- 1 142 cbr 230 [0 5 0 0] ------- [0:0 10:0 30 5] [142] 0 0
r 60.595153667 _10_ AGT  --- 1 22 cbr 230 [5 a 5 0] ------- [0:0 10:0 29 10] [22] 2 0
s 60.602446572 _0_ AGT  --- 1 143 cbr 210 [0 0 0 0] ------- [0:0 10:0 32 0] [143] 0 0
s 60.621113239 _0_ AGT  --- 1 144 cbr 210 [0 0 0 0] ------- [0:0 10:0 32 0] [144] 0 0
D 60.621138239 _0_ IFQ  --- 1 144 cbr 230 [0 5 0 0] ------- [0:0 10:0 30 5] [144] 0 0
s 60.639779905 _0_ AGT  --- 1 145 cbr 210 [0 0 0 0] ------- [0:0 10:0 32 0] [145] 0 0
D 60.639804905 _0_ IFQ  --- 1 145 cbr 230 [0 5 0 0] ------- [0:0 10:0 30 5] [145] 0 0
r 60.655153667 _10_ AGT  --- 1 43 cbr 230 [5 a 5 0] ------- [0:0 10:0 29 10] [43] 2 0
s 60.658446572 _0_ AGT  --- 1 146 cbr 210 [0 0 0 0] ------- [0:0 10:0 32 0] [146] 0 0
D 60.658471572 _0_ IFQ  --- 1 146 cbr 230 [0 5 0 0] ------- [0:0 10:0 30 5] [146] 0 0
s 60.677113239 _0_ AGT  --- 1 147 cbr 210 [0 0 0 0] ------- [0:0 10:0 32 0] [147] 0 0
D 60.692320256 _0_ IFQ  --- 1 147 cbr 230 [0 5 0 0] ------- [0:0 10:0 30 5] [147] 0 0
s 60.695779905 _0_ AGT  --- 1 148 cbr 210 [0 0 0 0] ------- [0:0 10:0 32 0] [148] 0 0
D 60.695804905 _0_ IFQ  --- 1 148 cbr 230 [0 5 0 0] ------- [0:0 10:0 30 5] [148] 0 0
s 60.714446572 _0_ AGT  --- 1 149 cbr 210 [0 0 0 0] ------- [0:0 10:0 32 0] [149] 0 0
D 60.714471572 _0_ IFQ  --- 1 149 cbr 230 [0 5 0 0] ------- [0:0 10:0 30 5] [149] 0 0
r 60.715153667 _10_ AGT  --- 1 23 cbr 230 [5 a 5 0] ------- [0:0 10:0 29 10] [23] 2 0
s 60.733113239 _0_ AGT  --- 1 150 cbr 210 [0 0 0 0] ------- [0:0 10:0 32 0] [150] 0 0
s 60.751779905 _0_ AGT  --- 1 151 cbr 210 [0 0 0 0] ------- [0:0 10:0 32 0] [151] 0 0
s 60.770446572 _0_ AGT  --- 1 152 cbr 210 [0 0 0 0] ------- [0:0 10:0 32 0] [152] 0 0
D 60.770471572 _0_ IFQ  --- 1 152 cbr 230 [0 5 0 0] ------- [0:0 10:0 30 5] [152] 0 0
r 60.775153667 _10_ AGT  --- 1 24 cbr 230 [5 a 5 0] ------- [0:0 10:0 29 10] [24] 2 0
s 60.789113239 _0_ AGT  --- 1 153 cbr 210 [0 0 0 0] ------- [0:0 10:0 32 0] [153] 0 0
s 60.807779905 _0_ AGT  --- 1 154 cbr 210 [0 0 0 0] ------- [0:0 10:0 32 0] [154] 0 0
D 60.807804905 _0_ IFQ  --- 1 154 cbr 230 [0 5 0 0] ------- [0:0 10:0 30 5] [154] 0 0
s 60.826446572 _0_ AGT  --- 1 155 cbr 210 [0 0 0 0] ------- [0:0 10:0 32 0] [155] 0 0
D 60.826471572 _0_ IFQ  --- 1 155 cbr 230 [0 5 0 0] ------- [0:0 10:0 30 5] [155] 0 0
r 60.835153667 _10_ AGT  --- 1 44 cbr 230 [5 a 5 0] ------- [0:0 10:0 29 10] [44] 2 0
s 60.845113239 _0_ AGT  --- 1 156 cbr 210 [0 0 0 0] ------- [0:0 10:0 32 0] [156] 0 0
s 60.863779905 _0_ AGT  --- 1 157 cbr 210 [0 0 0 0] ------- [0:0 10:0 32 0] [157] 0 0
D 60.863804905 _0_ IFQ  --- 1 157 cbr 230 [0 5 0 0] ------- [0:0 10:0 30 5] [157] 0 0
s 60.882446572 _0_ AGT  --- 1 158 cbr 210 [0 0 0 0] ------- [0:0 10:0 32 0] [158] 0 0
D 60.882471572 _0_ IFQ  --- 1 158 cbr 230 [0 5 0 0] ------- [0:0 10:0 30 5] [158] 0 0
r 60.895153667 _10_ AGT  --- 1 25 cbr 230 [5 a 5 0] ------- [0:0 10:0 29 10] [25] 2 0
s 60.901113239 _0_ AGT  --- 1 159 cbr 210 [0 0 0 0] ------- [0:0 10:0 32 0] [159] 0 0
s 60.919779905 _0_ AGT  --- 1 160 cbr 210 [0 0 0 0] ------- [0:0 10:0 32 0] [160] 0 0
D 60.919804905 _0_ IFQ  --- 1 160 cbr 230 [0 5 0 0] ------- [0:0 10:0 30 5] [160] 0 0
s 60.938446572 _0_ AGT  --- 1 161 cbr 210 [0 0 0 0] ------- [0:0 10:0 32 0] [161] 0 0
D 60.938471572 _0_ IFQ  --- 1 161 cbr 230 [0 5 0 0] ------- [0:0 10:0 30 5] [161] 0 0
r 60.955153667 _10_ AGT  --- 1 45 cbr 230 [5 a 5 0] ------- [0:0 10:0 29 10] [45] 2 0
s 60.957113239 _0_ AGT  --- 1 162 cbr 210 [0 0 0 0] ------- [0:0 10:0 32 0] [162] 0 0
D 60.957138239 _0_ IFQ  --- 1 162 cbr 230 [0 5 0 0] ------- [0:0 10:0 30 5] [162] 0 0
s 60.975779905 _0_ AGT  --- 1 163 cbr 210 [0 0 0 0] ------- [0:0 10:0 32 0] [163] 0 0
s 60.994446572 _0_ AGT  --- 1 164 cbr 210 [0 0 0 0] ------- [0:0 10:0 32 0] [164] 0 0
D 60.994471572 _0_ IFQ  --- 1 164 cbr 230 [0 5 0 0] ------- [0:0 10:0 30 5] [164] 0 0
s 61.013113239 _0_ AGT  --- 1 165 cbr 210 [0 0 0 0] ------- [0:0 10:0 32 0] [165] 0 0
D 61.013138239 _0_ IFQ  --- 1 165 cbr 230 [0 5 0 0] ------- [0:0 10:0 30 5] [165] 0 0
r 61.015153667 _10_ AGT  --- 1 26 cbr 230 [5 a 5 0] ------- [0:0 10:0 29 10] [26] 2 0
s 61.031779905 _0_ AGT  --- 1 166 cbr 210 [0 0 0 0] ------- [0:0 10:0 32 0] [166] 0 0
s 61.050446572 _0_ AGT  --- 1 167 cbr 210 [0 0 0 0] ------- [0:0 10:0 32 0] [167] 0 0
D 61.050471572 _0_ IFQ  --- 1 167 cbr 230 [0 5 0 0] ------- [0:0 10:0 30 5] [167] 0 0
s 61.069113239 _0_ AGT  --- 1 168 cbr 210 [0 0 0 0] ------- [0:0 10:0 32 0] [168] 0 0
D 61.069138239 _0_ IFQ  --- 1 168 cbr 230 [0 5 0 0] ------- [0:0 10:0 30 5] [168] 0 0
r 61.075153667 _10_ AGT  --- 1 27 cbr 230 [5 a 5 0] ------- [0:0 10:0 29 10] [27] 2 0
s 61.087779905 _0_ AGT  --- 1 169 cbr 210 [0 0 0 0] ------- [0:0 10:0 32 0] [169] 0 0
s 61.106446572 _0_ AGT  --- 1 170 cbr 210 [0 0 0 0] ------- [0:0 10:0 32 0] [170] 0 0
D 61.106471572 _0_ IFQ  --- 1 170 cbr 230 [0 5 0 0] ------- [0:0 10:0 30 5] [170] 0 0
s 61.125113239 _0_ AGT  --- 1 171 cbr 210 [0 0 0 0] ------- [0:0 10:0 32 0] [171] 0 0
D 61.125138239 _0_ IFQ  --- 1 171 cbr 230 [0 5 0 0] ------- [0:0 10:0 30 5] [171] 0 0
r 61.135153667 _10_ AGT  --- 1 46 cbr 230 [5 a 5 0] ------- [0:0 10:0 29 10] [46] 2 0
s 61.143779905 _0_ AGT  --- 1 172 cbr 210 [0 0 0 0] ------- [0:0 10:0 32 0] [172] 0 0
s 61.162446572 _0_ AGT  --- 1 173 cbr 210 [0 0 0 0] ------- [0:0 10:0 32 0] [173] 0 0
D 61.162471572 _0_ IFQ  --- 1 173 cbr 230 [0 5 0 0] ------- [0:0 10:0 30 5] [173] 0 0
s 61.181113239 _0_ AGT  --- 1 174 cbr 210 [0 0 0 0] ------- [0:0 10:0 32 0] [174] 0 0
D 61.181138239 _0_ IFQ  --- 1 174 cbr 230 [0 5 0 0] ------- [0:0 10:0 30 5] [174] 0 0
r 61.195153667 _10_ AGT  --- 1 28 cbr 230 [5 a 5 0] ------- [0:0 10:0 29 10] [28] 2 0
s 61.199779905 _0_ AGT  --- 1 175 cbr 210 [0 0 0 0] ------- [0:0 10:0 32 0] [175] 0 0
D 61.199804905 _0_ IFQ  --- 1 175 cbr 230 [0 5 0 0] ------- [0:0 10:0 30 5] [175] 0 0
s 61.218446572 _0_ AGT  --- 1 176 cbr 210 [0 0 0 0] ------- [0:0 10:0 32 0] [176] 0 0
s 61.237113239 _0_ AGT  --- 1 177 cbr 210 [0 0 0 0] ------- [0:0 10:0 32 0] [177] 0 0
D 61.237138239 _0_ IFQ  --- 1 177 cbr 230 [0 5 0 0] ------- [0:0 10:0 30 5] [177] 0 0
r 61.255153667 _10_ AGT  --- 1 29 cbr 230 [5 a 5 0] ------- [0:0 10:0 29 10] [29] 2 0
s 61.255779905 _0_ AGT  --- 1 178 cbr 210 [0 0 0 0] ------- [0:0 10:0 32 0] [178] 0 0
D 61.255804905 _0_ IFQ  --- 1 178 cbr 230 [0 5 0 0] ------- [0:0 10:0 30 5] [178] 0 0
s 61.274446572 _0_ AGT  --- 1 179 cbr 210 [0 0 0 0] ------- [0:0 10:0 32 0] [179] 0 0
s 61.293113239 _0_ AGT  --- 1 180 cbr 210 [0 0 0 0] ------- [0:0 10:0 32 0] [180] 0 0
D 61.293138239 _0_ IFQ  --- 1 180 cbr 230 [0 5 0 0] ------- [0:0 10:0 30 5] [180] 0 0
s 61.311779905 _0_ AGT  --- 1 181 cbr 210 [0 0 0 0] ------- [0:0 10:0 32 0] [181] 0 0
D 61.311804905 _0_ IFQ  --- 1 181 cbr 230 [0 5 0 0] ------- [0:0 10:0 30 5] [181] 0 0
r 61.315153667 _10_ AGT  --- 1 47 cbr 230 [5 a 5 0] ------- [0:0 10:0 29 10] [47] 2 0
s 61.330446572 _0_ AGT  --- 1 182 cbr 210 [0 0 0 0] ------- [0:0 10:0 32 0] [182] 0 0
s 61.349113239 _0_ AGT  --- 1 183 cbr 210 [0 0 0 0] ------- [0:0 10:0 32 0] [183] 0 0
D 61.349138239 _0_ IFQ  --- 1 183 cbr 230 [0 5 0 0] ------- [0:0 10:0 30 5] [183] 0 0
s 61.367779905 _0_ AGT  --- 1 184 cbr 210 [0 0 0 0] ------- [0:0 10:0 32 0] [184] 0 0
D 61.367804905 _0_ IFQ  --- 1 184 cbr 230 [0 5 0 0] ------- [0:0 10:0 30 5] [184] 0 0
r 61.375153667 _10_ AGT  --- 1 30 cbr 230 [5 a 5 0] ------- [0:0 10:0 29 10] [30] 2 0
s 61.386446572 _0_ AGT  --- 1 185 cbr 210 [0 0 0 0] ------- [0:0 10:0 32 0] [185] 0 0
s 61.405113239 _0_ AGT  --- 1 186 cbr 210 [0 0 0 0] ------- [0:0 10:0 32 0] [186] 0 0
D 61.405138239 _0_ IFQ  --- 1 186 cbr 230 [0 5 0 0] ------- [0:0 10:0 30 5] [186] 0 0
s 61.423779905 _0_ AGT  --- 1 187 cbr 210 [0 0 0 0] ------- [0:0 10:0 32 0] [187] 0 0
D 61.423804905 _0_ IFQ  --- 1 187 cbr 230 [0 5 0 0] ------- [0:0 10:0 30 5] [187] 0 0
r 61.435153667 _10_ AGT  --- 1 31 cbr 230 [5 a 5 0] ------- [0:0 10:0 29 10] [31] 2 0
s 61.442446572 _0_ AGT  --- 1 188 cbr 210 [0 0 0 0] ------- [0:0 10:0 32 0] [188] 0 0
s 61.461113239 _0_ AGT  --- 1 189 cbr 210 [0 0 0 0] ------- [0:0 10:0 32 0] [189] 0 0
D 61.461138239 _0_ IFQ  --- 1 189 cbr 230 [0 5 0 0] ------- [0:0 10:0 30 5] [189] 0 0
s 61.479779905 _0_ AGT  --- 1 190 cbr 210 [0 0 0 0] ------- [0:0 10:0 32 0] [190] 0 0
D 61.479804905 _0_ IFQ  --- 1 190 cbr 230 [0 5 0 0] ------- [0:0 10:0 30 5] [190] 0 0
r 61.495153667 _10_ AGT  --- 1 48 cbr 230 [5 a 5 0] ------- [0:0 10:0 29 10] [48] 2 0
s 61.498446572 _0_ AGT  --- 1 191 cbr 210 [0 0 0 0] ------- [0:0 10:0 32 0] [191] 0 0
D 61.498471572 _0_ IFQ  --- 1 191 cbr 230 [0 5 0 0] ------- [0:0 10:0 30 5] [191] 0 0
s 61.517113239 _0_ AGT  --- 1 192 cbr 210 [0 0 0 0] ------- [0:0 10:0 32 0] [192] 0 0
D 61.517138239 _0_ IFQ  --- 1 192 cbr 230 [0 5 0 0] ------- [0:0 10:0 30 5] [192] 0 0
s 61.535779905 _0_ AGT  --- 1 193 cbr 210 [0 0 0 0] ------- [0:0 10:0 32 0] [193] 0 0
D 61.535804905 _0_ IFQ  --- 1 193 cbr 230 [0 5 0 0] ------- [0:0 10:0 30 5] [193] 0 0
s 61.554446572 _0_ AGT  --- 1 194 cbr 210 [0 0 0 0] ------- [0:0 10:0 32 0] [194] 0 0
D 61.554471572 _0_ IFQ  --- 1 194 cbr 230 [0 5 0 0] ------- [0:0 10:0 30 5] [194] 0 0
r 61.555153667 _10_ AGT  --- 1 49 cbr 230 [5 a 5 0] ------- [0:0 10:0 29 10] [49] 2 0
s 61.573113239 _0_ AGT  --- 1 195 cbr 210 [0 0 0 0] ------- [0:0 10:0 32 0] [195] 0 0
s 61.591779905 _0_ AGT  --- 1 196 cbr 210 [0 0 0 0] ------- [0:0 10:0 32 0] [196] 0 0
s 61.610446572 _0_ AGT  --- 1 197 cbr 210 [0 0 0 0] ------- [0:0 10:0 32 0] [197] 0 0
D 61.610471572 _0_ IFQ  --- 1 197 cbr 230 [0 5 0 0] ------- [0:0 10:0 30 5] [197] 0 0
r 61.615153667 _10_ AGT  --- 1 50 cbr 230 [5 a 5 0] ------- [0:0 10:0 29 10] [50] 2 0
s 61.629113239 _0_ AGT  --- 1 198 cbr 210 [0 0 0 0] ------- [0:0 10:0 32 0] [198] 0 0
s 61.647779905 _0_ AGT  --- 1 199 cbr 210 [0 0 0 0] ------- [0:0 10:0 32 0] [199] 0 0
D 61.647804905 _0_ IFQ  --- 1 199 cbr 230 [0 5 0 0] ------- [0:0 10:0 30 5] [199] 0 0
s 61.666446572 _0_ AGT  --- 1 200 cbr 210 [0 0 0 0] ------- [0:0 10:0 32 0] [200] 0 0
D 61.666471572 _0_ IFQ  --- 1 200 cbr 230 [0 5 0 0] ------- [0:0 10:0 30 5] [200] 0 0
r 61.675153667 _10_ AGT  --- 1 51 cbr 230 [5 a 5 0] ------- [0:0 10:0 29 10] [51] 2 0
s 61.685113239 _0_ AGT  --- 1 201 cbr 210 [0 0 0 0] ------- [0:0 10:0 32 0] [201] 0 0
s 61.703779905 _0_ AGT  --- 1 202 cbr 210 [0 0 0 0] ------- [0:0 10:0 32 0] [202] 0 0
D 61.703804905 _0_ IFQ  --- 1 202 cbr 230 [0 5 0 0] ------- [0:0 10:0 30 5] [202] 0 0
s 61.722446572 _0_ AGT  --- 1 203 cbr 210 [0 0 0 0] ------- [0:0 10:0 32 0] [203] 0 0
D 61.722471572 _0_ IFQ  --- 1 203 cbr 230 [0 5 0 0] ------- [0:0 10:0 30 5] [203] 0 0
r 61.735153667 _10_ AGT  --- 1 52 cbr 230 [5 a 5 0] ------- [0:0 10:0 29 10] [52] 2 0
s 61.741113239 _0_ AGT  --- 1 204 cbr 210 [0 0 0 0] ------- [0:0 10:0 32 0] [204] 0 0
s 61.759779905 _0_ AGT  --- 1 205 cbr 210 [0 0 0 0] ------- [0:0 10:0 32 0] [205] 0 0
D 61.759804905 _0_ IFQ  --- 1 205 cbr 230 [0 5 0 0] ------- [0:0 10:0 30 5] [205] 0 0
s 61.778446572 _0_ AGT  --- 1 206 cbr 210 [0 0 0 0] ------- [0:0 10:0 32 0] [206] 0 0
D 61.778471572 _0_ IFQ  --- 1 206 cbr 230 [0 5 0 0] ------- [0:0 10:0 30 5] [206] 0 0
r 61.795153667 _10_ AGT  --- 1 53 cbr 230 [5 a 5 0] ------- [0:0 10:0 29 10] [53] 2 0
s 61.797113239 _0_ AGT  --- 1 207 cbr 210 [0 0 0 0] ------- [0:0 10:0 32 0] [207] 0 0
D 61.797138239 _0_ IFQ  --- 1 207 cbr 230 [0 5 0 0] ------- [0:0 10:0 30 5] [207] 0 0
s 61.815779905 _0_ AGT  --- 1 208 cbr 210 [0 0 0 0] ------- [0:0 10:0 32 0] [208] 0 0
s 61.834446572 _0_ AGT  --- 1 209 cbr 210 [0 0 0 0] ------- [0:0 10:0 32 0] [209] 0 0
D 61.834471572 _0_ IFQ  --- 1 209 cbr 230 [0 5 0 0] ------- [0:0 10:0 30 5] [209] 0 0
s 61.853113239 _0_ AGT  --- 1 210 cbr 210 [0 0 0 0] ------- [0:0 10:0 32 0] [210] 0 0
D 61.853138239 _0_ IFQ  --- 1 210 cbr 230 [0 5 0 0] ------- [0:0 10:0 30 5] [210] 0 0
r 61.855153667 _10_ AGT  --- 1 54 cbr 230 [5 a 5 0] ------- [0:0 10:0 29 10] [54] 2 0
s 61.871779905 _0_ AGT  --- 1 211 cbr 210 [0 0 0 0] ------- [0:0 10:0 32 0] [211] 0 0
s 61.890446572 _0_ AGT  --- 1 212 cbr 210 [0 0 0 0] ------- [0:0 10:0 32 0] [212] 0 0
D 61.890471572 _0_ IFQ  --- 1 212 cbr 230 [0 5 0 0] ------- [0:0 10:0 30 5] [212] 0 0
s 61.909113239 _0_ AGT  --- 1 213 cbr 210 [0 0 0 0] ------- [0:0 10:0 32 0] [213] 0 0
D 61.909138239 _0_ IFQ  --- 1 213 cbr 230 [0 5 0 0] ------- [0:0 10:0 30 5] [213] 0 0
r 61.915153667 _10_ AGT  --- 1 55 cbr 230 [5 a 5 0] ------- [0:0 10:0 29 10] [55] 2 0
s 61.927779905 _0_ AGT  --- 1 214 cbr 210 [0 0 0 0] ------- [0:0 10:0 32 0] [214] 0 0
s 61.946446572 _0_ AGT  --- 1 215 cbr 210 [0 0 0 0] ------- [0:0 10:0 32 0] [215] 0 0
D 61.946471572 _0_ IFQ  --- 1 215 cbr 230 [0 5 0 0] ------- [0:0 10:0 30 5] [215] 0 0
s 61.965113239 _0_ AGT  --- 1 216 cbr 210 [0 0 0 0] ------- [0:0 10:0 32 0] [216] 0 0
D 61.965138239 _0_ IFQ  --- 1 216 cbr 230 [0 5 0 0] ------- [0:0 10:0 30 5] [216] 0 0
r 61.975153667 _10_ AGT  --- 1 56 cbr 230 [5 a 5 0] ------- [0:0 10:0 29 10] [56] 2 0
s 61.983779905 _0_ AGT  --- 1 217 cbr 210 [0 0 0 0] ------- [0:0 10:0 32 0] [217] 0 0
s 62.002446572 _0_ AGT  --- 1 218 cbr 210 [0 0 0 0] ------- [0:0 10:0 32 0] [218] 0 0
D 62.002471572 _0_ IFQ  --- 1 218 cbr 230 [0 5 0 0] ------- [0:0 10:0 30 5] [218] 0 0
s 62.021113239 _0_ AGT  --- 1 219 cbr 210 [0 0 0 0] ------- [0:0 10:0 32 0] [219] 0 0
D 62.021138239 _0_ IFQ  --- 1 219 cbr 230 [0 5 0 0] ------- [0:0 10:0 30 5] [219] 0 0
r 62.035153667 _10_ AGT  --- 1 57 cbr 230 [5 a 5 0] ------- [0:0 10:0 29 10] [57] 2 0
s 62.039779905 _0_ AGT  --- 1 220 cbr 210 [0 0 0 0] ------- [0:0 10:0 32 0] [220] 0 0
D 62.039804905 _0_ IFQ  --- 1 220 cbr 230 [0 5 0 0] ------- [0:0 10:0 30 5] [220] 0 0
s 62.058446572 _0_ AGT  --- 1 221 cbr 210 [0 0 0 0] ------- [0:0 10:0 32 0] [221] 0 0
s 62.077113239 _0_ AGT  --- 1 222 cbr 210 [0 0 0 0] ------- [0:0 10:0 32 0] [222] 0 0
D 62.077138239 _0_ IFQ  --- 1 222 cbr 230 [0 5 0 0] ------- [0:0 10:0 30 5] [222] 0 0
r 62.095153667 _10_ AGT  --- 1 58 cbr 230 [5 a 5 0] ------- [0:0 10:0 29 10] [58] 2 0
s 62.095779905 _0_ AGT  --- 1 223 cbr 210 [0 0 0 0] ------- [0:0 10:0 32 0] [223] 0 0
D 62.095804905 _0_ IFQ  --- 1 223 cbr 230 [0 5 0 0] ------- [0:0 10:0 30 5] [223] 0 0
s 62.114446572 _0_ AGT  --- 1 224 cbr 210 [0 0 0 0] ------- [0:0 10:0 32 0] [224] 0 0
s 62.133113239 _0_ AGT  --- 1 225 cbr 210 [0 0 0 0] ------- [0:0 10:0 32 0] [225] 0 0
D 62.133138239 _0_ IFQ  --- 1 225 cbr 230 [0 5 0 0] ------- [0:0 10:0 30 5] [225] 0 0