n -t * -s 0  -x 200 -y 800 -Z 0 -z 10  -v circle -c black
n -t * -s 1  -x 200 -y 570 -Z 0 -z 10  -v circle -c black
n -t * -s 2  -x 200 -y 340 -Z 0 -z 10  -v circle -c black
n -t * -s 3  -x 430 -y 630 -Z 0 -z 10  -v circle -c black
n -t * -s 4  -x 550 -y 630 -Z 0 -z 10  -v circle -c black
n -t * -s 5  -x 200 -y 110 -Z 0 -z 10  -v circle -c black
V -t * -v 1.0a5 -a 0
W -t * -x 1000 -y 1000
A -t * -n 1 -p 0 -o 0x7fffffff -c 30 -a 1
A -t * -h 1 -m 1073741823 -s 0
+ -t 0.100000000 -s 0 -d -1 -p cbr -e 210 -c 2 -a 0 -i 0 -k AGT 
- -t 0.100000000 -s 0 -d -1 -p cbr -e 210 -c 2 -a 0 -i 0 -k AGT
h -t 0.100000000 -s 0 -d -1 -p cbr -e 210 -c 2 -a 0 -i 0 -k AGT
+ -t 0.156000000 -s 0 -d -1 -p cbr -e 210 -c 2 -a 0 -i 1 -k AGT 
- -t 0.156000000 -s 0 -d -1 -p cbr -e 210 -c 2 -a 0 -i 1 -k AGT
h -t 0.156000000 -s 0 -d -1 -p cbr -e 210 -c 2 -a 0 -i 1 -k AGT
+ -t 0.200000000 -s 2 -d -1 -p cbr -e 210 -c 2 -a 0 -i 2 -k AGT 
- -t 0.200000000 -s 2 -d -1 -p cbr -e 210 -c 2 -a 0 -i 2 -k AGT
h -t 0.200000000 -s 2 -d -1 -p cbr -e 210 -c 2 -a 0 -i 2 -k AGT
+ -t 0.212000000 -s 0 -d -1 -p cbr -e 210 -c 2 -a 0 -i 3 -k AGT 
- -t 0.212000000 -s 0 -d -1 -p cbr -e 210 -c 2 -a 0 -i 3 -k AGT
h -t 0.212000000 -s 0 -d -1 -p cbr -e 210 -c 2 -a 0 -i 3 -k AGT
+ -t 0.256000000 -s 2 -d -1 -p cbr -e 210 -c 2 -a 0 -i 4 -k AGT 
- -t 0.256000000 -s 2 -d -1 -p cbr -e 210 -c 2 -a 0 -i 4 -k AGT
h -t 0.256000000 -s 2 -d -1 -p cbr -e 210 -c 2 -a 0 -i 4 -k AGT
+ -t 0.268000000 -s 0 -d -1 -p cbr -e 210 -c 2 -a 0 -i 5 -k AGT 
- -t 0.268000000 -s 0 -d -1 -p cbr -e 210 -c 2 -a 0 -i 5 -k AGT
h -t 0.268000000 -s 0 -d -1 -p cbr -e 210 -c 2 -a 0 -i 5 -k AGT
r -t 0.271153767 -s 1 -d 1 -p cbr -e 230 -c 2 -a 0 -i 0 -k AGT
+ -t 0.312000000 -s 2 -d -1 -p cbr -e 210 -c 2 -a 0 -i 6 -k AGT 
- -t 0.312000000 -s 2 -d -1 -p cbr -e 210 -c 2 -a 0 -i 6 -k AGT
h -t 0.312000000 -s 2 -d -1 -p cbr -e 210 -c 2 -a 0 -i 6 -k AGT
r -t 0.313153767 -s 1 -d 1 -p cbr -e 230 -c 2 -a 0 -i 5 -k AGT
+ -t 0.324000000 -s 0 -d -1 -p cbr -e 210 -c 2 -a 0 -i 7 -k AGT 
- -t 0.324000000 -s 0 -d -1 -p cbr -e 210 -c 2 -a 0 -i 7 -k AGT
h -t 0.324000000 -s 0 -d -1 -p cbr -e 210 -c 2 -a 0 -i 7 -k AGT
r -t 0.355153767 -s 1 -d 1 -p cbr -e 230 -c 2 -a 0 -i 1 -k AGT
+ -t 0.368000000 -s 2 -d -1 -p cbr -e 210 -c 2 -a 0 -i 8 -k AGT 
- -t 0.368000000 -s 2 -d -1 -p cbr -e 210 -c 2 -a 0 -i 8 -k AGT
h -t 0.368000000 -s 2 -d -1 -p cbr -e 210 -c 2 -a 0 -i 8 -k AGT
+ -t 0.380000000 -s 0 -d -1 -p cbr -e 210 -c 2 -a 0 -i 9 -k AGT 
- -t 0.380000000 -s 0 -d -1 -p cbr -e 210 -c 2 -a 0 -i 9 -k AGT
h -t 0.380000000 -s 0 -d -1 -p cbr -e 210 -c 2 -a 0 -i 9 -k AGT
r -t 0.397153767 -s 1 -d 1 -p cbr -e 230 -c 2 -a 0 -i 3 -k AGT
+ -t 0.424000000 -s 2 -d -1 -p cbr -e 210 -c 2 -a 0 -i 10 -k AGT 
- -t 0.424000000 -s 2 -d -1 -p cbr -e 210 -c 2 -a 0 -i 10 -k AGT
h -t 0.424000000 -s 2 -d -1 -p cbr -e 210 -c 2 -a 0 -i 10 -k AGT
+ -t 0.436000000 -s 0 -d -1 -p cbr -e 210 -c 2 -a 0 -i 11 -k AGT 
- -t 0.436000000 -s 0 -d -1 -p cbr -e 210 -c 2 -a 0 -i 11 -k AGT
h -t 0.436000000 -s 0 -d -1 -p cbr -e 210 -c 2 -a 0 -i 11 -k AGT
r -t 0.439153767 -s 1 -d 1 -p cbr -e 230 -c 2 -a 0 -i 7 -k AGT
+ -t 0.480000000 -s 2 -d -1 -p cbr -e 210 -c 2 -a 0 -i 12 -k AGT 
- -t 0.480000000 -s 2 -d -1 -p cbr -e 210 -c 2 -a 0 -i 12 -k AGT
h -t 0.480000000 -s 2 -d -1 -p cbr -e 210 -c 2 -a 0 -i 12 -k AGT
r -t 0.481153767 -s 1 -d 1 -p cbr -e 230 -c 2 -a 0 -i 9 -k AGT
+ -t 0.492000000 -s 0 -d -1 -p cbr -e 210 -c 2 -a 0 -i 13 -k AGT 
- -t 0.492000000 -s 0 -d -1 -p cbr -e 210 -c 2 -a 0 -i 13 -k AGT
h -t 0.492000000 -s 0 -d -1 -p cbr -e 210 -c 2 -a 0 -i 13 -k AGT
r -t 0.523153767 -s 1 -d 1 -p cbr -e 230 -c 2 -a 0 -i 11 -k AGT
+ -t 0.536000000 -s 2 -d -1 -p cbr -e 210 -c 2 -a 0 -i 14 -k AGT 
- -t 0.536000000 -s 2 -d -1 -p cbr -e 210 -c 2 -a 0 -i 14 -k AGT
h -t 0.536000000 -s 2 -d -1 -p cbr -e 210 -c 2 -a 0 -i 14 -k AGT
+ -t 0.548000000 -s 0 -d -1 -p cbr -e 210 -c 2 -a 0 -i 15 -k AGT 
- -t 0.548000000 -s 0 -d -1 -p cbr -e 210 -c 2 -a 0 -i 15 -k AGT
h -t 0.548000000 -s 0 -d -1 -p cbr -e 210 -c 2 -a 0 -i 15 -k AGT
r -t 0.565153767 -s 1 -d 1 -p cbr -e 230 -c 2 -a 0 -i 13 -k AGT
+ -t 0.592000000 -s 2 -d -1 -p cbr -e 210 -c 2 -a 0 -i 16 -k AGT 
- -t 0.592000000 -s 2 -d -1 -p cbr -e 210 -c 2 -a 0 -i 16 -k AGT
h -t 0.592000000 -s 2 -d -1 -p cbr -e 210 -c 2 -a 0 -i 16 -k AGT
+ -t 0.604000000 -s 0 -d -1 -p cbr -e 210 -c 2 -a 0 -i 17 -k AGT 
- -t 0.604000000 -s 0 -d -1 -p cbr -e 210 -c 2 -a 0 -i 17 -k AGT
h -t 0.604000000 -s 0 -d -1 -p cbr -e 210 -c 2 -a 0 -i 17 -k AGT
r -t 0.607153767 -s 1 -d 1 -p cbr -e 230 -c 2 -a 0 -i 15 -k AGT
+ -t 0.648000000 -s 2 -d -1 -p cbr -e 210 -c 2 -a 0 -i 18 -k AGT 
- -t 0.648000000 -s 2 -d -1 -p cbr -e 210 -c 2 -a 0 -i 18 -k AGT
h -t 0.648000000 -s 2 -d -1 -p cbr -e 210 -c 2 -a 0 -i 18 -k AGT
r -t 0.649153767 -s 1 -d 1 -p cbr -e 230 -c 2 -a 0 -i 17 -k AGT
+ -t 0.660000000 -s 0 -d -1 -p cbr -e 210 -c 2 -a 0 -i 19 -k AGT 
- -t 0.660000000 -s 0 -d -1 -p cbr -e 210 -c 2 -a 0 -i 19 -k AGT
h -t 0.660000000 -s 0 -d -1 -p cbr -e 210 -c 2 -a 0 -i 19 -k AGT
r -t 0.691153767 -s 1 -d 1 -p cbr -e 230 -c 2 -a 0 -i 19 -k AGT
+ -t 0.704000000 -s 2 -d -1 -p cbr -e 210 -c 2 -a 0 -i 20 -k AGT 
- -t 0.704000000 -s 2 -d -1 -p cbr -e 210 -c 2 -a 0 -i 20 -k AGT
h -t 0.704000000 -s 2 -d -1 -p cbr -e 210 -c 2 -a 0 -i 20 -k AGT
+ -t 0.716000000 -s 0 -d -1 -p cbr -e 210 -c 2 -a 0 -i 21 -k AGT 
- -t 0.716000000 -s 0 -d -1 -p cbr -e 210 -c 2 -a 0 -i 21 -k AGT
h -t 0.716000000 -s 0 -d -1 -p cbr -e 210 -c 2 -a 0 -i 21 -k AGT
r -t 0.733153767 -s 1 -d 1 -p cbr -e 230 -c 2 -a 0 -i 21 -k AGT
+ -t 0.760000000 -s 2 -d -1 -p cbr -e 210 -c 2 -a 0 -i 22 -k AGT 
- -t 0.760000000 -s 2 -d -1 -p cbr -e 210 -c 2 -a 0 -i 22 -k AGT
h -t 0.760000000 -s 2 -d -1 -p cbr -e 210 -c 2 -a 0 -i 22 -k AGT
+ -t 0.772000000 -s 0 -d -1 -p cbr -e 210 -c 2 -a 0 -i 23 -k AGT 
- -t 0.772000000 -s 0 -d -1 -p cbr -e 210 -c 2 -a 0 -i 23 -k AGT
h -t 0.772000000 -s 0 -d -1 -p cbr -e 210 -c 2 -a 0 -i 23 -k AGT
r -t 0.775153767 -s 1 -d 1 -p cbr -e 230 -c 2 -a 0 -i 23 -k AGT
+ -t 0.816000000 -s 2 -d -1 -p cbr -e 210 -c 2 -a 0 -i 24 -k AGT 
- -t 0.816000000 -s 2 -d -1 -p cbr -e 210 -c 2 -a 0 -i 24 -k AGT
h -t 0.816000000 -s 2 -d -1 -p cbr -e 210 -c 2 -a 0 -i 24 -k AGT
+ -t 0.828000000 -s 0 -d -1 -p cbr -e 210 -c 2 -a 0 -i 25 -k AGT 
- -t 0.828000000 -s 0 -d -1 -p cbr -e 210 -c 2 -a 0 -i 25 -k AGT
h -t 0.828000000 -s 0 -d -1 -p cbr -e 210 -c 2 -a 0 -i 25 -k AGT
r -t 0.859153767 -s 1 -d 1 -p cbr -e 230 -c 2 -a 0 -i 25 -k AGT
+ -t 0.872000000 -s 2 -d -1 -p cbr -e 210 -c 2 -a 0 -i 26 -k AGT 
- -t 0.872000000 -s 2 -d -1 -p cbr -e 210 -c 2 -a 0 -i 26 -k AGT
h -t 0.872000000 -s 2 -d -1 -p cbr -e 210 -c 2 -a 0 -i 26 -k AGT
+ -t 0.884000000 -s 0 -d -1 -p cbr -e 210 -c 2 -a 0 -i 27 -k AGT 
- -t 0.884000000 -s 0 -d -1 -p cbr -e 210 -c 2 -a 0 -i 27 -k AGT
h -t 0.884000000 -s 0 -d -1 -p cbr -e 210 -c 2 -a 0 -i 27 -k AGT
r -t 0.901153767 -s 1 -d 1 -p cbr -e 230 -c 2 -a 0 -i 27 -k AGT
+ -t 0.928000000 -s 2 -d -1 -p cbr -e 210 -c 2 -a 0 -i 28 -k AGT 
- -t 0.928000000 -s 2 -d -1 -p cbr -e 210 -c 2 -a 0 -i 28 -k AGT
h -t 0.928000000 -s 2 -d -1 -p cbr -e 210 -c 2 -a 0 -i 28 -k AGT
+ -t 0.940000000 -s 0 -d -1 -p cbr -e 210 -c 2 -a 0 -i 29 -k AGT 
- -t 0.940000000 -s 0 -d -1 -p cbr -e 210 -c 2 -a 0 -i 29 -k AGT
h -t 0.940000000 -s 0 -d -1 -p cbr -e 210 -c 2 -a 0 -i 29 -k AGT
r -t 0.943153767 -s 1 -d 1 -p cbr -e 230 -c 2 -a 0 -i 29 -k AGT
+ -t 0.984000000 -s 2 -d -1 -p cbr -e 210 -c 2 -a 0 -i 30 -k AGT 
- -t 0.984000000 -s 2 -d -1 -p cbr -e 210 -c 2 -a 0 -i 30 -k AGT
h -t 0.984000000 -s 2 -d -1 -p cbr -e 210 -c 2 -a 0 -i 30 -k AGT
+ -t 0.996000000 -s 0 -d -1 -p cbr -e 210 -c 2 -a 0 -i 31 -k AGT 
- -t 0.996000000 -s 0 -d -1 -p cbr -e 210 -c 2 -a 0 -i 31 -k AGT
h -t 0.996000000 -s 0 -d -1 -p cbr -e 210 -c 2 -a 0 -i 31 -k AGT
r -t 1.027153767 -s 1 -d 1 -p cbr -e 230 -c 2 -a 0 -i 31 -k AGT
+ -t 1.040000000 -s 2 -d -1 -p cbr -e 210 -c 2 -a 0 -i 32 -k AGT 
- -t 1.040000000 -s 2 -d -1 -p cbr -e 210 -c 2 -a 0 -i 32 -k AGT
h -t 1.040000000 -s 2 -d -1 -p cbr -e 210 -c 2 -a 0 -i 32 -k AGT
+ -t 1.052000000 -s 0 -d -1 -p cbr -e 210 -c 2 -a 0 -i 33 -k AGT 
- -t 1.052000000 -s 0 -d -1 -p cbr -e 210 -c 2 -a 0 -i 33 -k AGT
h -t 1.052000000 -s 0 -d -1 -p cbr -e 210 -c 2 -a 0 -i 33 -k AGT
r -t 1.069153767 -s 1 -d 1 -p cbr -e 230 -c 2 -a 0 -i 33 -k AGT
+ -t 1.096000000 -s 2 -d -1 -p cbr -e 210 -c 2 -a 0 -i 34 -k AGT 
- -t 1.096000000 -s 2 -d -1 -p cbr -e 210 -c 2 -a 0 -i 34 -k AGT
h -t 1.096000000 -s 2 -d -1 -p cbr -e 210 -c 2 -a 0 -i 34 -k AGT
+ -t 1.108000000 -s 0 -d -1 -p cbr -e 210 -c 2 -a 0 -i 35 -k AGT 
- -t 1.108000000 -s 0 -d -1 -p cbr -e 210 -c 2 -a 0 -i 35 -k AGT
h -t 1.108000000 -s 0 -d -1 -p cbr -e 210 -c 2 -a 0 -i 35 -k AGT
r -t 1.111153767 -s 1 -d 1 -p cbr -e 230 -c 2 -a 0 -i 35 -k AGT
+ -t 1.152000000 -s 2 -d -1 -p cbr -e 210 -c 2 -a 0 -i 36 -k AGT 
- -t 1.152000000 -s 2 -d -1 -p cbr -e 210 -c 2 -a 0 -i 36 -k AGT
h -t 1.152000000 -s 2 -d -1 -p cbr -e 210 -c 2 -a 0 -i 36 -k AGT
+ -t 1.164000000 -s 0 -d -1 -p cbr -e 210 -c 2 -a 0 -i 37 -k AGT 
- -t 1.164000000 -s 0 -d -1 -p cbr -e 210 -c 2 -a 0 -i 37 -k AGT
h -t 1.164000000 -s 0 -d -1 -p cbr -e 210 -c 2 -a 0 -i 37 -k AGT
r -t 1.195153767 -s 1 -d 1 -p cbr -e 230 -c 2 -a 0 -i 37 -k AGT
+ -t 1.208000000 -s 2 -d -1 -p cbr -e 210 -c 2 -a 0 -i 38 -k AGT 
- -t 1.208000000 -s 2 -d -1 -p cbr -e 210 -c 2 -a 0 -i 38 -k AGT
h -t 1.208000000 -s 2 -d -1 -p cbr -e 210 -c 2 -a 0 -i 38 -k AGT
+ -t 1.220000000 -s 0 -d -1 -p cbr -e 210 -c 2 -a 0 -i 39 -k AGT 
- -t 1.220000000 -s 0 -d -1 -p cbr -e 210 -c 2 -a 0 -i 39 -k AGT
h -t 1.220000000 -s 0 -d -1 -p cbr -e 210 -c 2 -a 0 -i 39 -k AGT
r -t 1.237153767 -s 1 -d 1 -p cbr -e 230 -c 2 -a 0 -i 39 -k AGT
+ -t 1.264000000 -s 2 -d -1 -p cbr -e 210 -c 2 -a 0 -i 40 -k AGT 
- -t 1.264000000 -s 2 -d -1 -p cbr -e 210 -c 2 -a 0 -i 40 -k AGT
h -t 1.264000000 -s 2 -d -1 -p cbr -e 210 -c 2 -a 0 -i 40 -k AGT
+ -t 1.276000000 -s 0 -d -1 -p cbr -e 210 -c 2 -a 0 -i 41 -k AGT 
- -t 1.276000000 -s 0 -d -1 -p cbr -e 210 -c 2 -a 0 -i 41 -k AGT
h -t 1.276000000 -s 0 -d -1 -p cbr -e 210 -c 2 -a 0 -i 41 -k AGT
r -t 1.279153767 -s 1 -d 1 -p cbr -e 230 -c 2 -a 0 -i 41 -k AGT
+ -t 1.320000000 -s 2 -d -1 -p cbr -e 210 -c 2 -a 0 -i 42 -k AGT 
- -t 1.320000000 -s 2 -d -1 -p cbr -e 210 -c 2 -a 0 -i 42 -k AGT
h -t 1.320000000 -s 2 -d -1 -p cbr -e 210 -c 2 -a 0 -i 42 -k AGT
+ -t 1.332000000 -s 0 -d -1 -p cbr -e 210 -c 2 -a 0 -i 43 -k AGT 
- -t 1.332000000 -s 0 -d -1 -p cbr -e 210 -c 2 -a 0 -i 43 -k AGT
h -t 1.332000000 -s 0 -d -1 -p cbr -e 210 -c 2 -a 0 -i 43 -k AGT
r -t 1.363153767 -s 1 -d 1 -p cbr -e 230 -c 2 -a 0 -i 43 -k AGT
+ -t 1.376000000 -s 2 -d -1 -p cbr -e 210 -c 2 -a 0 -i 44 -k AGT 
- -t 1.376000000 -s 2 -d -1 -p cbr -e 210 -c 2 -a 0 -i 44 -k AGT
h -t 1.376000000 -s 2 -d -1 -p cbr -e 210 -c 2 -a 0 -i 44 -k AGT
+ -t 1.388000000 -s 0 -d -1 -p cbr -e 210 -c 2 -a 0 -i 45 -k AGT 
- -t 1.388000000 -s 0 -d -1 -p cbr -e 210 -c 2 -a 0 -i 45 -k AGT
h -t 1.388000000 -s 0 -d -1 -p cbr -e 210 -c 2 -a 0 -i 45 -k AGT
r -t 1.405153767 -s 1 -d 1 -p cbr -e 230 -c 2 -a 0 -i 45 -k AGT
+ -t 1.432000000 -s 2 -d -1 -p cbr -e 210 -c 2 -a 0 -i 46 -k AGT 
- -t 1.432000000 -s 2 -d -1 -p cbr -e 210 -c 2 -a 0 -i 46 -k AGT
h -t 1.432000000 -s 2 -d -1 -p cbr -e 210 -c 2 -a 0 -i 46 -k AGT
+ -t 1.444000000 -s 0 -d -1 -p cbr -e 210 -c 2 -a 0 -i 47 -k AGT 
- -t 1.444000000 -s 0 -d -1 -p cbr -e 210 -c 2 -a 0 -i 47 -k AGT
h -t 1.444000000 -s 0 -d -1 -p cbr -e 210 -c 2 -a 0 -i 47 -k AGT
r -t 1.447153767 -s 1 -d 1 -p cbr -e 230 -c 2 -a 0 -i 47 -k AGT
+ -t 1.488000000 -s 2 -d -1 -p cbr -e 210 -c 2 -a 0 -i 48 -k AGT 
- -t 1.488000000 -s 2 -d -1 -p cbr -e 210 -c 2 -a 0 -i 48 -k AGT
h -t 1.488000000 -s 2 -d -1 -p cbr -e 210 -c 2 -a 0 -i 48 -k AGT
+ -t 1.500000000 -s 0 -d -1 -p cbr -e 210 -c 2 -a 0 -i 49 -k AGT 
- -t 1.500000000 -s 0 -d -1 -p cbr -e 210 -c 2 -a 0 -i 49 -k AGT
h -t 1.500000000 -s 0 -d -1 -p cbr -e 210 -c 2 -a 0 -i 49 -k AGT
r -t 1.531153767 -s 1 -d 1 -p cbr -e 230 -c 2 -a 0 -i 49 -k AGT
+ -t 1.544000000 -s 2 -d -1 -p cbr -e 210 -c 2 -a 0 -i 50 -k AGT 
- -t 1.544000000 -s 2 -d -1 -p cbr -e 210 -c 2 -a 0 -i 50 -k AGT
h -t 1.544000000 -s 2 -d -1 -p cbr -e 210 -c 2 -a 0 -i 50 -k AGT
+ -t 1.556000000 -s 0 -d -1 -p cbr -e 210 -c 2 -a 0 -i 51 -k AGT 
- -t 1.556000000 -s 0 -d -1 -p cbr -e 210 -c 2 -a 0 -i 51 -k AGT
h -t 1.556000000 -s 0 -d -1 -p cbr -e 210 -c 2 -a 0 -i 51 -k AGT
r -t 1.573153767 -s 1 -d 1 -p cbr -e 230 -c 2 -a 0 -i 51 -k AGT
+ -t 1.600000000 -s 2 -d -1 -p cbr -e 210 -c 2 -a 0 -i 52 -k AGT 
- -t 1.600000000 -s 2 -d -1 -p cbr -e 210 -c 2 -a 0 -i 52 -k AGT
h -t 1.600000000 -s 2 -d -1 -p cbr -e 210 -c 2 -a 0 -i 52 -k AGT
+ -t 1.612000000 -s 0 -d -1 -p cbr -e 210 -c 2 -a 0 -i 53 -k AGT 
- -t 1.612000000 -s 0 -d -1 -p cbr -e 210 -c 2 -a 0 -i 53 -k AGT
h -t 1.612000000 -s 0 -d -1 -p cbr -e 210 -c 2 -a 0 -i 53 -k AGT
r -t 1.615153767 -s 1 -d 1 -p cbr -e 230 -c 2 -a 0 -i 53 -k AGT
+ -t 1.656000000 -s 2 -d -1 -p cbr -e 210 -c 2 -a 0 -i 54 -k AGT 
- -t 1.656000000 -s 2 -d -1 -p cbr -e 210 -c 2 -a 0 -i 54 -k AGT
h -t 1.656000000 -s 2 -d -1 -p cbr -e 210 -c 2 -a 0 -i 54 -k AGT
+ -t 1.668000000 -s 0 -d -1 -p cbr -e 210 -c 2 -a 0 -i 55 -k AGT 
- -t 1.668000000 -s 0 -d -1 -p cbr -e 210 -c 2 -a 0 -i 55 -k AGT
h -t 1.668000000 -s 0 -d -1 -p cbr -e 210 -c 2 -a 0 -i 55 -k AGT
r -t 1.699153767 -s 1 -d 1 -p cbr -e 230 -c 2 -a 0 -i 55 -k AGT
+ -t 1.712000000 -s 2 -d -1 -p cbr -e 210 -c 2 -a 0 -i 56 -k AGT 
- -t 1.712000000 -s 2 -d -1 -p cbr -e 210 -c 2 -a 0 -i 56 -k AGT
h -t 1.712000000 -s 2 -d -1 -p cbr -e 210 -c 2 -a 0 -i 56 -k AGT
+ -t 1.724000000 -s 0 -d -1 -p cbr -e 210 -c 2 -a 0 -i 57 -k AGT 
- -t 1.724000000 -s 0 -d -1 -p cbr -e 210 -c 2 -a 0 -i 57 -k AGT
h -t 1.724000000 -s 0 -d -1 -p cbr -e 210 -c 2 -a 0 -i 57 -k AGT
r -t 1.741153767 -s 1 -d 1 -p cbr -e 230 -c 2 -a 0 -i 57 -k AGT
+ -t 1.768000000 -s 2 -d -1 -p cbr -e 210 -c 2 -a 0 -i 58 -k AGT 
- -t 1.768000000 -s 2 -d -1 -p cbr -e 210 -c 2 -a 0 -i 58 -k AGT
h -t 1.768000000 -s 2 -d -1 -p cbr -e 210 -c 2 -a 0 -i 58 -k AGT
+ -t 1.780000000 -s 0 -d -1 -p cbr -e 210 -c 2 -a 0 -i 59 -k AGT 
- -t 1.780000000 -s 0 -d -1 -p cbr -e 210 -c 2 -a 0 -i 59 -k AGT
h -t 1.780000000 -s 0 -d -1 -p cbr -e 210 -c 2 -a 0 -i 59 -k AGT
r -t 1.783153767 -s 1 -d 1 -p cbr -e 230 -c 2 -a 0 -i 59 -k AGT
+ -t 1.824000000 -s 2 -d -1 -p cbr -e 210 -c 2 -a 0 -i 60 -k AGT 
- -t 1.824000000 -s 2 -d -1 -p cbr -e 210 -c 2 -a 0 -i 60 -k AGT
h -t 1.824000000 -s 2 -d -1 -p cbr -e 210 -c 2 -a 0 -i 60 -k AGT
+ -t 1.836000000 -s 0 -d -1 -p cbr -e 210 -c 2 -a 0 -i 61 -k AGT 
- -t 1.836000000 -s 0 -d -1 -p cbr -e 210 -c 2 -a 0 -i 61 -k AGT
h -t 1.836000000 -s 0 -d -1 -p cbr -e 210 -c 2 -a 0 -i 61 -k AGT
r -t 1.867153767 -s 1 -d 1 -p cbr -e 230 -c 2 -a 0 -i 61 -k AGT
+ -t 1.880000000 -s 2 -d -1 -p cbr -e 210 -c 2 -a 0 -i 62 -k AGT 
- -t 1.880000000 -s 2 -d -1 -p cbr -e 210 -c 2 -a 0 -i 62 -k AGT
h -t 1.880000000 -s 2 -d -1 -p cbr -e 210 -c 2 -a 0 -i 62 -k AGT
+ -t 1.892000000 -s 0 -d -1 -p cbr -e 210 -c 2 -a 0 -i 63 -k AGT 
- -t 1.892000000 -s 0 -d -1 -p cbr -e 210 -c 2 -a 0 -i 63 -k AGT
h -t 1.892000000 -s 0 -d -1 -p cbr -e 210 -c 2 -a 0 -i 63 -k AGT
r -t 1.909153767 -s 1 -d 1 -p cbr -e 230 -c 2 -a 0 -i 63 -k AGT
+ -t 1.936000000 -s 2 -d -1 -p cbr -e 210 -c 2 -a 0 -i 64 -k AGT 
- -t 1.936000000 -s 2 -d -1 -p cbr -e 210 -c 2 -a 0 -i 64 -k AGT
h -t 1.936000000 -s 2 -d -1 -p cbr -e 210 -c 2 -a 0 -i 64 -k AGT
+ -t 1.948000000 -s 0 -d -1 -p cbr -e 210 -c 2 -a 0 -i 65 -k AGT 
- -t 1.948000000 -s 0 -d -1 -p cbr -e 210 -c 2 -a 0 -i 65 -k AGT
h -t 1.948000000 -s 0 -d -1 -p cbr -e 210 -c 2 -a 0 -i 65 -k AGT
r -t 1.951153767 -s 1 -d 1 -p cbr -e 230 -c 2 -a 0 -i 65 -k AGT
+ -t 1.992000000 -s 2 -d -1 -p cbr -e 210 -c 2 -a 0 -i 66 -k AGT 
- -t 1.992000000 -s 2 -d -1 -p cbr -e 210 -c 2 -a 0 -i 66 -k AGT
h -t 1.992000000 -s 2 -d -1 -p cbr -e 210 -c 2 -a 0 -i 66 -k AGT
+ -t 2.004000000 -s 0 -d -1 -p cbr -e 210 -c 2 -a 0 -i 67 -k AGT 
- -t 2.004000000 -s 0 -d -1 -p cbr -e 210 -c 2 -a 0 -i 67 -k AGT
h -t 2.004000000 -s 0 -d -1 -p cbr -e 210 -c 2 -a 0 -i 67 -k AGT
r -t 2.035153767 -s 1 -d 1 -p cbr -e 230 -c 2 -a 0 -i 67 -k AGT
+ -t 2.048000000 -s 2 -d -1 -p cbr -e 210 -c 2 -a 0 -i 68 -k AGT 
- -t 2.048000000 -s 2 -d -1 -p cbr -e 210 -c 2 -a 0 -i 68 -k AGT
h -t 2.048000000 -s 2 -d -1 -p cbr -e 210 -c 2 -a 0 -i 68 -k AGT
+ -t 2.060000000 -s 0 -d -1 -p cbr -e 210 -c 2 -a 0 -i 69 -k AGT 
- -t 2.060000000 -s 0 -d -1 -p cbr -e 210 -c 2 -a 0 -i 69 -k AGT
h -t 2.060000000 -s 0 -d -1 -p cbr -e 210 -c 2 -a 0 -i 69 -k AGT
r -t 2.077153767 -s 1 -d 1 -p cbr -e 230 -c 2 -a 0 -i 69 -k AGT
+ -t 2.104000000 -s 2 -d -1 -p cbr -e 210 -c 2 -a 0 -i 70 -k AGT 
- -t 2.104000000 -s 2 -d -1 -p cbr -e 210 -c 2 -a 0 -i 70 -k AGT
h -t 2.104000000 -s 2 -d -1 -p cbr -e 210 -c 2 -a 0 -i 70 -k AGT
+ -t 2.116000000 -s 0 -d -1 -p cbr -e 210 -c 2 -a 0 -i 71 -k AGT 
- -t 2.116000000 -s 0 -d -1 -p cbr -e 210 -c 2 -a 0 -i 71 -k AGT
h -t 2.116000000 -s 0 -d -1 -p cbr -e 210 -c 2 -a 0 -i 71 -k AGT
r -t 2.119153767 -s 1 -d 1 -p cbr -e 230 -c 2 -a 0 -i 71 -k AGT
+ -t 2.160000000 -s 2 -d -1 -p cbr -e 210 -c 2 -a 0 -i 72 -k AGT 
- -t 2.160000000 -s 2 -d -1 -p cbr -e 210 -c 2 -a 0 -i 72 -k AGT
h -t 2.160000000 -s 2 -d -1 -p cbr -e 210 -c 2 -a 0 -i 72 -k AGT
+ -t 2.172000000 -s 0 -d -1 -p cbr -e 210 -c 2 -a 0 -i 73 -k AGT 
- -t 2.172000000 -s 0 -d -1 -p cbr -e 210 -c 2 -a 0 -i 73 -k AGT
h -t 2.172000000 -s 0 -d -1 -p cbr -e 210 -c 2 -a 0 -i 73 -k AGT
r -t 2.203153767 -s 1 -d 1 -p cbr -e 230 -c 2 -a 0 -i 73 -k AGT
+ -t 2.216000000 -s 2 -d -1 -p cbr -e 210 -c 2 -a 0 -i 74 -k AGT 
- -t 2.216000000 -s 2 -d -1 -p cbr -e 210 -c 2 -a 0 -i 74 -k AGT
h -t 2.216000000 -s 2 -d -1 -p cbr -e 210 -c 2 -a 0 -i 74 -k AGT
+ -t 2.228000000 -s 0 -d -1 -p cbr -e 210 -c 2 -a 0 -i 75 -k AGT 
- -t 2.228000000 -s 0 -d -1 -p cbr -e 210 -c 2 -a 0 -i 75 -k AGT
h -t 2.228000000 -s 0 -d -1 -p cbr -e 210 -c 2 -a 0 -i 75 -k AGT
r -t 2.245153767 -s 1 -d 1 -p cbr -e 230 -c 2 -a 0 -i 75 -k AGT
+ -t 2.272000000 -s 2 -d -1 -p cbr -e 210 -c 2 -a 0 -i 76 -k AGT 
- -t 2.272000000 -s 2 -d -1 -p cbr -e 210 -c 2 -a 0 -i 76 -k AGT
h -t 2.272000000 -s 2 -d -1 -p cbr -e 210 -c 2 -a 0 -i 76 -k AGT
+ -t 2.284000000 -s 0 -d -1 -p cbr -e 210 -c 2 -a 0 -i 77 -k AGT 
- -t 2.284000000 -s 0 -d -1 -p cbr -e 210 -c 2 -a 0 -i 77 -k AGT
h -t 2.284000000 -s 0 -d -1 -p cbr -e 210 -c 2 -a 0 -i 77 -k AGT
r -t 2.287153767 -s 1 -d 1 -p cbr -e 230 -c 2 -a 0 -i 77 -k AGT
+ -t 2.328000000 -s 2 -d -1 -p cbr -e 210 -c 2 -a 0 -i 78 -k AGT 
- -t 2.328000000 -s 2 -d -1 -p cbr -e 210 -c 2 -a 0 -i 78 -k AGT
h -t 2.328000000 -s 2 -d -1 -p cbr -e 210 -c 2 -a 0 -i 78 -k AGT
+ -t 2.340000000 -s 0 -d -1 -p cbr -e 210 -c 2 -a 0 -i 79 -k AGT 
- -t 2.340000000 -s 0 -d -1 -p cbr -e 210 -c 2 -a 0 -i 79 -k AGT
h -t 2.340000000 -s 0 -d -1 -p cbr -e 210 -c 2 -a 0 -i 79 -k AGT
r -t 2.371153767 -s 1 -d 1 -p cbr -e 230 -c 2 -a 0 -i 79 -k AGT
+ -t 2.384000000 -s 2 -d -1 -p cbr -e 210 -c 2 -a 0 -i 80 -k AGT 
- -t 2.384000000 -s 2 -d -1 -p cbr -e 210 -c 2 -a 0 -i 80 -k AGT
h -t 2.384000000 -s 2 -d -1 -p cbr -e 210 -c 2 -a 0 -i 80 -k AGT
+ -t 2.396000000 -s 0 -d -1 -p cbr -e 210 -c 2 -a 0 -i 81 -k AGT 
- -t 2.396000000 -s 0 -d -1 -p cbr -e 210 -c 2 -a 0 -i 81 -k AGT
h -t 2.396000000 -s 0 -d -1 -p cbr -e 210 -c 2 -a 0 -i 81 -k AGT
r -t 2.413153767 -s 1 -d 1 -p cbr -e 230 -c 2 -a 0 -i 81 -k AGT
+ -t 2.440000000 -s 2 -d -1 -p cbr -e 210 -c 2 -a 0 -i 82 -k AGT 
- -t 2.440000000 -s 2 -d -1 -p cbr -e 210 -c 2 -a 0 -i 82 -k AGT
h -t 2.440000000 -s 2 -d -1 -p cbr -e 210 -c 2 -a 0 -i 82 -k AGT
+ -t 2.452000000 -s 0 -d -1 -p cbr -e 210 -c 2 -a 0 -i 83 -k AGT 
- -t 2.452000000 -s 0 -d -1 -p cbr -e 210 -c 2 -a 0 -i 83 -k AGT
h -t 2.452000000 -s 0 -d -1 -p cbr -e 210 -c 2 -a 0 -i 83 -k AGT
r -t 2.455153767 -s 1 -d 1 -p cbr -e 230 -c 2 -a 0 -i 83 -k AGT
+ -t 2.496000000 -s 2 -d -1 -p cbr -e 210 -c 2 -a 0 -i 84 -k AGT 
- -t 2.496000000 -s 2 -d -1 -p cbr -e 210 -c 2 -a 0 -i 84 -k AGT
h -t 2.496000000 -s 2 -d -1 -p cbr -e 210 -c 2 -a 0 -i 84 -k AGT
+ -t 2.508000000 -s 0 -d -1 -p cbr -e 210 -c 2 -a 0 -i 85 -k AGT 
- -t 2.508000000 -s 0 -d -1 -p cbr -e 210 -c 2 -a 0 -i 85 -k AGT
h -t 2.508000000 -s 0 -d -1 -p cbr -e 210 -c 2 -a 0 -i 85 -k AGT
r -t 2.539153767 -s 1 -d 1 -p cbr -e 230 -c 2 -a 0 -i 85 -k AGT
+ -t 2.552000000 -s 2 -d -1 -p cbr -e 210 -c 2 -a 0 -i 86 -k AGT 
- -t 2.552000000 -s 2 -d -1 -p cbr -e 210 -c 2 -a 0 -i 86 -k AGT
h -t 2.552000000 -s 2 -d -1 -p cbr -e 210 -c 2 -a 0 -i 86 -k AGT
+ -t 2.564000000 -s 0 -d -1 -p cbr -e 210 -c 2 -a 0 -i 87 -k AGT 
- -t 2.564000000 -s 0 -d -1 -p cbr -e 210 -c 2 -a 0 -i 87 -k AGT
h -t 2.564000000 -s 0 -d -1 -p cbr -e 210 -c 2 -a 0 -i 87 -k AGT
r -t 2.581153767 -s 1 -d 1 -p cbr -e 230 -c 2 -a 0 -i 87 -k AGT
+ -t 2.608000000 -s 2 -d -1 -p cbr -e 210 -c 2 -a 0 -i 88 -k AGT 
- -t 2.608000000 -s 2 -d -1 -p cbr -e 210 -c 2 -a 0 -i 88 -k AGT
h -t 2.608000000 -s 2 -d -1 -p cbr -e 210 -c 2 -a 0 -i 88 -k AGT
+ -t 2.620000000 -s 0 -d -1 -p cbr -e 210 -c 2 -a 0 -i 89 -k AGT 
- -t 2.620000000 -s 0 -d -1 -p cbr -e 210 -c 2 -a 0 -i 89 -k AGT
h -t 2.620000000 -s 0 -d -1 -p cbr -e 210 -c 2 -a 0 -i 89 -k AGT
+ -t 2.664000000 -s 2 -d -1 -p cbr -e 210 -c 2 -a 0 -i 90 -k AGT 
- -t 2.664000000 -s 2 -d -1 -p cbr -e 210 -c 2 -a 0 -i 90 -k AGT
h -t 2.664000000 -s 2 -d -1 -p cbr -e 210 -c 2 -a 0 -i 90 -k AGT
r -t 2.665153767 -s 1 -d 1 -p cbr -e 230 -c 2 -a 0 -i 89 -k AGT
+ -t 2.676000000 -s 0 -d -1 -p cbr -e 210 -c 2 -a 0 -i 91 -k AGT 
- -t 2.676000000 -s 0 -d -1 -p cbr -e 210 -c 2 -a 0 -i 91 -k AGT
h -t 2.676000000 -s 0 -d -1 -p cbr -e 210 -c 2 -a 0 -i 91 -k AGT
r -t 2.707153767 -s 1 -d 1 -p cbr -e 230 -c 2 -a 0 -i 91 -k AGT
+ -t 2.720000000 -s 2 -d -1 -p cbr -e 210 -c 2 -a 0 -i 92 -k AGT 
- -t 2.720000000 -s 2 -d -1 -p cbr -e 210 -c 2 -a 0 -i 92 -k AGT
h -t 2.720000000 -s 2 -d -1 -p cbr -e 210 -c 2 -a 0 -i 92 -k AGT
+ -t 2.732000000 -s 0 -d -1 -p cbr -e 210 -c 2 -a 0 -i 93 -k AGT 
- -t 2.732000000 -s 0 -d -1 -p cbr -e 210 -c 2 -a 0 -i 93 -k AGT
h -t 2.732000000 -s 0 -d -1 -p cbr -e 210 -c 2 -a 0 -i 93 -k AGT
r -t 2.749153767 -s 1 -d 1 -p cbr -e 230 -c 2 -a 0 -i 93 -k AGT
+ -t 2.776000000 -s 2 -d -1 -p cbr -e 210 -c 2 -a 0 -i 94 -k AGT 
- -t 2.776000000 -s 2 -d -1 -p cbr -e 210 -c 2 -a 0 -i 94 -k AGT
h -t 2.776000000 -s 2 -d -1 -p cbr -e 210 -c 2 -a 0 -i 94 -k AGT
+ -t 2.788000000 -s 0 -d -1 -p cbr -e 210 -c 2 -a 0 -i 95 -k AGT 
- -t 2.788000000 -s 0 -d -1 -p cbr -e 210 -c 2 -a 0 -i 95 -k AGT
h -t 2.788000000 -s 0 -d -1 -p cbr -e 210 -c 2 -a 0 -i 95 -k AGT
r -t 2.791153767 -s 1 -d 1 -p cbr -e 230 -c 2 -a 0 -i 95 -k AGT
+ -t 2.832000000 -s 2 -d -1 -p cbr -e 210 -c 2 -a 0 -i 96 -k AGT 
- -t 2.832000000 -s 2 -d -1 -p cbr -e 210 -c 2 -a 0 -i 96 -k AGT
h -t 2.832000000 -s 2 -d -1 -p cbr -e 210 -c 2 -a 0 -i 96 -k AGT
+ -t 2.844000000 -s 0 -d -1 -p cbr -e 210 -c 2 -a 0 -i 97 -k AGT 
- -t 2.844000000 -s 0 -d -1 -p cbr -e 210 -c 2 -a 0 -i 97 -k AGT
h -t 2.844000000 -s 0 -d -1 -p cbr -e 210 -c 2 -a 0 -i 97 -k AGT
r -t 2.875153767 -s 1 -d 1 -p cbr -e 230 -c 2 -a 0 -i 97 -k AGT
+ -t 2.888000000 -s 2 -d -1 -p cbr -e 210 -c 2 -a 0 -i 98 -k AGT 
- -t 2.888000000 -s 2 -d -1 -p cbr -e 210 -c 2 -a 0 -i 98 -k AGT
h -t 2.888000000 -s 2 -d -1 -p cbr -e 210 -c 2 -a 0 -i 98 -k AGT
+ -t 2.900000000 -s 0 -d -1 -p cbr -e 210 -c 2 -a 0 -i 99 -k AGT 
- -t 2.900000000 -s 0 -d -1 -p cbr -e 210 -c 2 -a 0 -i 99 -k AGT
h -t 2.900000000 -s 0 -d -1 -p cbr -e 210 -c 2 -a 0 -i 99 -k AGT
r -t 2.917153767 -s 1 -d 1 -p cbr -e 230 -c 2 -a 0 -i 99 -k AGT
+ -t 2.944000000 -s 2 -d -1 -p cbr -e 210 -c 2 -a 0 -i 100 -k AGT 
- -t 2.944000000 -s 2 -d -1 -p cbr -e 210 -c 2 -a 0 -i 100 -k AGT
h -t 2.944000000 -s 2 -d -1 -p cbr -e 210 -c 2 -a 0 -i 100 -k AGT
+ -t 2.956000000 -s 0 -d -1 -p cbr -e 210 -c 2 -a 0 -i 101 -k AGT 
- -t 2.956000000 -s 0 -d -1 -p cbr -e 210 -c 2 -a 0 -i 101 -k AGT
h -t 2.956000000 -s 0 -d -1 -p cbr -e 210 -c 2 -a 0 -i 101 -k AGT
r -t 2.959153767 -s 1 -d 1 -p cbr -e 230 -c 2 -a 0 -i 101 -k AGT
+ -t 3.000000000 -s 2 -d -1 -p cbr -e 210 -c 2 -a 0 -i 102 -k AGT 
- -t 3.000000000 -s 2 -d -1 -p cbr -e 210 -c 2 -a 0 -i 102 -k AGT
h -t 3.000000000 -s 2 -d -1 -p cbr -e 210 -c 2 -a 0 -i 102 -k AGT
+ -t 3.012000000 -s 0 -d -1 -p cbr -e 210 -c 2 -a 0 -i 103 -k AGT 
- -t 3.012000000 -s 0 -d -1 -p cbr -e 210 -c 2 -a 0 -i 103 -k AGT
h -t 3.012000000 -s 0 -d -1 -p cbr -e 210 -c 2 -a 0 -i 103 -k AGT
r -t 3.043153767 -s 1 -d 1 -p cbr -e 230 -c 2 -a 0 -i 103 -k AGT
+ -t 3.056000000 -s 2 -d -1 -p cbr -e 210 -c 2 -a 0 -i 104 -k AGT 
- -t 3.056000000 -s 2 -d -1 -p cbr -e 210 -c 2 -a 0 -i 104 -k AGT
h -t 3.056000000 -s 2 -d -1 -p cbr -e 210 -c 2 -a 0 -i 104 -k AGT
+ -t 3.068000000 -s 0 -d -1 -p cbr -e 210 -c 2 -a 0 -i 105 -k AGT 
- -t 3.068000000 -s 0 -d -1 -p cbr -e 210 -c 2 -a 0 -i 105 -k AGT
h -t 3.068000000 -s 0 -d -1 -p cbr -e 210 -c 2 -a 0 -i 105 -k AGT
r -t 3.085153767 -s 1 -d 1 -p cbr -e 230 -c 2 -a 0 -i 105 -k AGT
+ -t 3.112000000 -s 2 -d -1 -p cbr -e 210 -c 2 -a 0 -i 106 -k AGT 
- -t 3.112000000 -s 2 -d -1 -p cbr -e 210 -c 2 -a 0 -i 106 -k AGT
h -t 3.112000000 -s 2 -d -1 -p cbr -e 210 -c 2 -a 0 -i 106 -k AGT
+ -t 3.124000000 -s 0 -d -1 -p cbr -e 210 -c 2 -a 0 -i 107 -k AGT 
- -t 3.124000000 -s 0 -d -1 -p cbr -e 210 -c 2 -a 0 -i 107 -k AGT
h -t 3.124000000 -s 0 -d -1 -p cbr -e 210 -c 2 -a 0 -i 107 -k AGT
r -t 3.127153767 -s 1 -d 1 -p cbr -e 230 -c 2 -a 0 -i 107 -k AGT
+ -t 3.168000000 -s 2 -d -1 -p cbr -e 210 -c 2 -a 0 -i 108 -k AGT 
- -t 3.168000000 -s 2 -d -1 -p cbr -e 210 -c 2 -a 0 -i 108 -k AGT
h -t 3.168000000 -s 2 -d -1 -p cbr -e 210 -c 2 -a 0 -i 108 -k AGT
+ -t 3.180000000 -s 0 -d -1 -p cbr -e 210 -c 2 -a 0 -i 109 -k AGT 
- -t 3.180000000 -s 0 -d -1 -p cbr -e 210 -c 2 -a 0 -i 109 -k AGT
h -t 3.180000000 -s 0 -d -1 -p cbr -e 210 -c 2 -a 0 -i 109 -k AGT
r -t 3.211153767 -s 1 -d 1 -p cbr -e 230 -c 2 -a 0 -i 109 -k AGT
+ -t 3.224000000 -s 2 -d -1 -p cbr -e 210 -c 2 -a 0 -i 110 -k AGT 
- -t 3.224000000 -s 2 -d -1 -p cbr -e 210 -c 2 -a 0 -i 110 -k AGT
h -t 3.224000000 -s 2 -d -1 -p cbr -e 210 -c 2 -a 0 -i 110 -k AGT
+ -t 3.236000000 -s 0 -d -1 -p cbr -e 210 -c 2 -a 0 -i 111 -k AGT 
- -t 3.236000000 -s 0 -d -1 -p cbr -e 210 -c 2 -a 0 -i 111 -k AGT
h -t 3.236000000 -s 0 -d -1 -p cbr -e 210 -c 2 -a 0 -i 111 -k AGT
r -t 3.253153767 -s 1 -d 1 -p cbr -e 230 -c 2 -a 0 -i 111 -k AGT
+ -t 3.280000000 -s 2 -d -1 -p cbr -e 210 -c 2 -a 0 -i 112 -k AGT 
- -t 3.280000000 -s 2 -d -1 -p cbr -e 210 -c 2 -a 0 -i 112 -k AGT
h -t 3.280000000 -s 2 -d -1 -p cbr -e 210 -c 2 -a 0 -i 112 -k AGT
+ -t 3.292000000 -s 0 -d -1 -p cbr -e 210 -c 2 -a 0 -i 113 -k AGT 
- -t 3.292000000 -s 0 -d -1 -p cbr -e 210 -c 2 -a 0 -i 113 -k AGT
h -t 3.292000000 -s 0 -d -1 -p cbr -e 210 -c 2 -a 0 -i 113 -k AGT
r -t 3.295153767 -s 1 -d 1 -p cbr -e 230 -c 2 -a 0 -i 113 -k AGT
+ -t 3.336000000 -s 2 -d -1 -p cbr -e 210 -c 2 -a 0 -i 114 -k AGT 
- -t 3.336000000 -s 2 -d -1 -p cbr -e 210 -c 2 -a 0 -i 114 -k AGT
h -t 3.336000000 -s 2 -d -1 -p cbr -e 210 -c 2 -a 0 -i 114 -k AGT
+ -t 3.348000000 -s 0 -d -1 -p cbr -e 210 -c 2 -a 0 -i 115 -k AGT 
- -t 3.348000000 -s 0 -d -1 -p cbr -e 210 -c 2 -a 0 -i 115 -k AGT
h -t 3.348000000 -s 0 -d -1 -p cbr -e 210 -c 2 -a 0 -i 115 -k AGT
r -t 3.379153767 -s 1 -d 1 -p cbr -e 230 -c 2 -a 0 -i 115 -k AGT
+ -t 3.392000000 -s 2 -d -1 -p cbr -e 210 -c 2 -a 0 -i 116 -k AGT 
- -t 3.392000000 -s 2 -d -1 -p cbr -e 210 -c 2 -a 0 -i 116 -k AGT
h -t 3.392000000 -s 2 -d -1 -p cbr -e 210 -c 2 -a 0 -i 116 -k AGT
+ -t 3.404000000 -s 0 -d -1 -p cbr -e 210 -c 2 -a 0 -i 117 -k AGT 
- -t 3.404000000 -s 0 -d -1 -p cbr -e 210 -c 2 -a 0 -i 117 -k AGT
h -t 3.404000000 -s 0 -d -1 -p cbr -e 210 -c 2 -a 0 -i 117 -k AGT
r -t 3.421153767 -s 1 -d 1 -p cbr -e 230 -c 2 -a 0 -i 117 -k AGT
+ -t 3.448000000 -s 2 -d -1 -p cbr -e 210 -c 2 -a 0 -i 118 -k AGT 
- -t 3.448000000 -s 2 -d -1 -p cbr -e 210 -c 2 -a 0 -i 118 -k AGT
h -t 3.448000000 -s 2 -d -1 -p cbr -e 210 -c 2 -a 0 -i 118 -k AGT
+ -t 3.460000000 -s 0 -d -1 -p cbr -e 210 -c 2 -a 0 -i 119 -k AGT 
- -t 3.460000000 -s 0 -d -1 -p cbr -e 210 -c 2 -a 0 -i 119 -k AGT
h -t 3.460000000 -s 0 -d -1 -p cbr -e 210 -c 2 -a 0 -i 119 -k AGT
r -t 3.463153767 -s 1 -d 1 -p cbr -e 230 -c 2 -a 0 -i 119 -k AGT
+ -t 3.504000000 -s 2 -d -1 -p cbr -e 210 -c 2 -a 0 -i 120 -k AGT 
- -t 3.504000000 -s 2 -d -1 -p cbr -e 210 -c 2 -a 0 -i 120 -k AGT
h -t 3.504000000 -s 2 -d -1 -p cbr -e 210 -c 2 -a 0 -i 120 -k AGT
+ -t 3.516000000 -s 0 -d -1 -p cbr -e 210 -c 2 -a 0 -i 121 -k AGT 
- -t 3.516000000 -s 0 -d -1 -p cbr -e 210 -c 2 -a 0 -i 121 -k AGT
h -t 3.516000000 -s 0 -d -1 -p cbr -e 210 -c 2 -a 0 -i 121 -k AGT
r -t 3.547153767 -s 1 -d 1 -p cbr -e 230 -c 2 -a 0 -i 121 -k AGT
+ -t 3.560000000 -s 2 -d -1 -p cbr -e 210 -c 2 -a 0 -i 122 -k AGT 
- -t 3.560000000 -s 2 -d -1 -p cbr -e 210 -c 2 -a 0 -i 122 -k AGT
h -t 3.560000000 -s 2 -d -1 -p cbr -e 210 -c 2 -a 0 -i 122 -k AGT
+ -t 3.572000000 -s 0 -d -1 -p cbr -e 210 -c 2 -a 0 -i 123 -k AGT 
- -t 3.572000000 -s 0 -d -1 -p cbr -e 210 -c 2 -a 0 -i 123 -k AGT
h -t 3.572000000 -s 0 -d -1 -p cbr -e 210 -c 2 -a 0 -i 123 -k AGT
r -t 3.589153767 -s 1 -d 1 -p cbr -e 230 -c 2 -a 0 -i 123 -k AGT
+ -t 3.616000000 -s 2 -d -1 -p cbr -e 210 -c 2 -a 0 -i 124 -k AGT 
- -t 3.616000000 -s 2 -d -1 -p cbr -e 210 -c 2 -a 0 -i 124 -k AGT
h -t 3.616000000 -s 2 -d -1 -p cbr -e 210 -c 2 -a 0 -i 124 -k AGT
+ -t 3.628000000 -s 0 -d -1 -p cbr -e 210 -c 2 -a 0 -i 125 -k AGT 
- -t 3.628000000 -s 0 -d -1 -p cbr -e 210 -c 2 -a 0 -i 125 -k AGT
h -t 3.628000000 -s 0 -d -1 -p cbr -e 210 -c 2 -a 0 -i 125 -k AGT
r -t 3.631153767 -s 1 -d 1 -p cbr -e 230 -c 2 -a 0 -i 125 -k AGT
+ -t 3.672000000 -s 2 -d -1 -p cbr -e 210 -c 2 -a 0 -i 126 -k AGT 
- -t 3.672000000 -s 2 -d -1 -p cbr -e 210 -c 2 -a 0 -i 126 -k AGT
h -t 3.672000000 -s 2 -d -1 -p cbr -e 210 -c 2 -a 0 -i 126 -k AGT
+ -t 3.684000000 -s 0 -d -1 -p cbr -e 210 -c 2 -a 0 -i 127 -k AGT 
- -t 3.684000000 -s 0 -d -1 -p cbr -e 210 -c 2 -a 0 -i 127 -k AGT
h -t 3.684000000 -s 0 -d -1 -p cbr -e 210 -c 2 -a 0 -i 127 -k AGT
r -t 3.715153767 -s 1 -d 1 -p cbr -e 230 -c 2 -a 0 -i 127 -k AGT
+ -t 3.728000000 -s 2 -d -1 -p cbr -e 210 -c 2 -a 0 -i 128 -k AGT 
- -t 3.728000000 -s 2 -d -1 -p cbr -e 210 -c 2 -a 0 -i 128 -k AGT
h -t 3.728000000 -s 2 -d -1 -p cbr -e 210 -c 2 -a 0 -i 128 -k AGT