n -t * -s 0  -x 50 -y 50 -Z 0 -z 10  -v circle -c black
n -t * -s 1  -x 50 -y 250 -Z 0 -z 10  -v circle -c black
n -t * -s 2  -x 50 -y 450 -Z 0 -z 10  -v circle -c black
n -t * -s 3  -x 50 -y 650 -Z 0 -z 10  -v circle -c black
n -t * -s 4  -x 250 -y -150 -Z 0 -z 10  -v circle -c black
n -t * -s 5  -x 250 -y 50 -Z 0 -z 10  -v circle -c black
n -t * -s 6  -x 250 -y 250 -Z 0 -z 10  -v circle -c black
n -t * -s 7  -x 250 -y 450 -Z 0 -z 10  -v circle -c black
n -t * -s 8  -x 450 -y -350 -Z 0 -z 10  -v circle -c black
n -t * -s 9  -x 450 -y -150 -Z 0 -z 10  -v circle -c black
n -t * -s 10  -x 450 -y 50 -Z 0 -z 10  -v circle -c black
n -t * -s 11  -x 450 -y 250 -Z 0 -z 10  -v circle -c black
n -t * -s 12  -x 650 -y -550 -Z 0 -z 10  -v circle -c black
n -t * -s 13  -x 650 -y -350 -Z 0 -z 10  -v circle -c black
n -t * -s 14  -x 650 -y -150 -Z 0 -z 10  -v circle -c black
n -t * -s 15  -x 650 -y 50 -Z 0 -z 10  -v circle -c black
V -t * -v 1.0a5 -a 0
W -t * -x 1000 -y 1000
A -t * -n 1 -p 0 -o 0x7fffffff -c 30 -a 1
A -t * -h 1 -m 1073741823 -s 0
+ -t 0.793739269 -s 9 -d -1 -p cbr -e 210 -c 2 -a 0 -i 0 -k AGT 
- -t 0.793739269 -s 9 -d -1 -p cbr -e 210 -c 2 -a 0 -i 0 -k AGT
h -t 0.793739269 -s 9 -d -1 -p cbr -e 210 -c 2 -a 0 -i 0 -k AGT
+ -t 0.807739269 -s 9 -d -1 -p cbr -e 210 -c 2 -a 0 -i 1 -k AGT 
- -t 0.807739269 -s 9 -d -1 -p cbr -e 210 -c 2 -a 0 -i 1 -k AGT
h -t 0.807739269 -s 9 -d -1 -p cbr -e 210 -c 2 -a 0 -i 1 -k AGT
+ -t 0.821739269 -s 9 -d -1 -p cbr -e 210 -c 2 -a 0 -i 2 -k AGT 
- -t 0.821739269 -s 9 -d -1 -p cbr -e 210 -c 2 -a 0 -i 2 -k AGT
h -t 0.821739269 -s 9 -d -1 -p cbr -e 210 -c 2 -a 0 -i 2 -k AGT
+ -t 0.835739269 -s 9 -d -1 -p cbr -e 210 -c 2 -a 0 -i 3 -k AGT 
- -t 0.835739269 -s 9 -d -1 -p cbr -e 210 -c 2 -a 0 -i 3 -k AGT
h -t 0.835739269 -s 9 -d -1 -p cbr -e 210 -c 2 -a 0 -i 3 -k AGT
+ -t 0.849739269 -s 9 -d -1 -p cbr -e 210 -c 2 -a 0 -i 4 -k AGT 
- -t 0.849739269 -s 9 -d -1 -p cbr -e 210 -c 2 -a 0 -i 4 -k AGT
h -t 0.849739269 -s 9 -d -1 -p cbr -e 210 -c 2 -a 0 -i 4 -k AGT
+ -t 0.863739269 -s 9 -d -1 -p cbr -e 210 -c 2 -a 0 -i 5 -k AGT 
- -t 0.863739269 -s 9 -d -1 -p cbr -e 210 -c 2 -a 0 -i 5 -k AGT
h -t 0.863739269 -s 9 -d -1 -p cbr -e 210 -c 2 -a 0 -i 5 -k AGT
+ -t 0.877739269 -s 9 -d -1 -p cbr -e 210 -c 2 -a 0 -i 6 -k AGT 
- -t 0.877739269 -s 9 -d -1 -p cbr -e 210 -c 2 -a 0 -i 6 -k AGT
h -t 0.877739269 -s 9 -d -1 -p cbr -e 210 -c 2 -a 0 -i 6 -k AGT
+ -t 0.891739269 -s 9 -d -1 -p cbr -e 210 -c 2 -a 0 -i 7 -k AGT 
- -t 0.891739269 -s 9 -d -1 -p cbr -e 210 -c 2 -a 0 -i 7 -k AGT
h -t 0.891739269 -s 9 -d -1 -p cbr -e 210 -c 2 -a 0 -i 7 -k AGT
+ -t 0.905739269 -s 9 -d -1 -p cbr -e 210 -c 2 -a 0 -i 8 -k AGT 
- -t 0.905739269 -s 9 -d -1 -p cbr -e 210 -c 2 -a 0 -i 8 -k AGT
h -t 0.905739269 -s 9 -d -1 -p cbr -e 210 -c 2 -a 0 -i 8 -k AGT
+ -t 0.919739269 -s 9 -d -1 -p cbr -e 210 -c 2 -a 0 -i 9 -k AGT 
- -t 0.919739269 -s 9 -d -1 -p cbr -e 210 -c 2 -a 0 -i 9 -k AGT
h -t 0.919739269 -s 9 -d -1 -p cbr -e 210 -c 2 -a 0 -i 9 -k AGT
+ -t 0.933739269 -s 9 -d -1 -p cbr -e 210 -c 2 -a 0 -i 10 -k AGT 
- -t 0.933739269 -s 9 -d -1 -p cbr -e 210 -c 2 -a 0 -i 10 -k AGT
h -t 0.933739269 -s 9 -d -1 -p cbr -e 210 -c 2 -a 0 -i 10 -k AGT
+ -t 0.947739269 -s 9 -d -1 -p cbr -e 210 -c 2 -a 0 -i 11 -k AGT 
- -t 0.947739269 -s 9 -d -1 -p cbr -e 210 -c 2 -a 0 -i 11 -k AGT
h -t 0.947739269 -s 9 -d -1 -p cbr -e 210 -c 2 -a 0 -i 11 -k AGT
+ -t 0.961739269 -s 9 -d -1 -p cbr -e 210 -c 2 -a 0 -i 12 -k AGT 
- -t 0.961739269 -s 9 -d -1 -p cbr -e 210 -c 2 -a 0 -i 12 -k AGT
h -t 0.961739269 -s 9 -d -1 -p cbr -e 210 -c 2 -a 0 -i 12 -k AGT
+ -t 0.975739269 -s 9 -d -1 -p cbr -e 210 -c 2 -a 0 -i 13 -k AGT 
- -t 0.975739269 -s 9 -d -1 -p cbr -e 210 -c 2 -a 0 -i 13 -k AGT
h -t 0.975739269 -s 9 -d -1 -p cbr -e 210 -c 2 -a 0 -i 13 -k AGT
+ -t 0.989739269 -s 9 -d -1 -p cbr -e 210 -c 2 -a 0 -i 14 -k AGT 
- -t 0.989739269 -s 9 -d -1 -p cbr -e 210 -c 2 -a 0 -i 14 -k AGT
h -t 0.989739269 -s 9 -d -1 -p cbr -e 210 -c 2 -a 0 -i 14 -k AGT
+ -t 1.003739269 -s 9 -d -1 -p cbr -e 210 -c 2 -a 0 -i 15 -k AGT 
- -t 1.003739269 -s 9 -d -1 -p cbr -e 210 -c 2 -a 0 -i 15 -k AGT
h -t 1.003739269 -s 9 -d -1 -p cbr -e 210 -c 2 -a 0 -i 15 -k AGT
+ -t 1.017739269 -s 9 -d -1 -p cbr -e 210 -c 2 -a 0 -i 16 -k AGT 
- -t 1.017739269 -s 9 -d -1 -p cbr -e 210 -c 2 -a 0 -i 16 -k AGT
h -t 1.017739269 -s 9 -d -1 -p cbr -e 210 -c 2 -a 0 -i 16 -k AGT
+ -t 1.031739269 -s 9 -d -1 -p cbr -e 210 -c 2 -a 0 -i 17 -k AGT 
- -t 1.031739269 -s 9 -d -1 -p cbr -e 210 -c 2 -a 0 -i 17 -k AGT
h -t 1.031739269 -s 9 -d -1 -p cbr -e 210 -c 2 -a 0 -i 17 -k AGT
+ -t 1.045739269 -s 9 -d -1 -p cbr -e 210 -c 2 -a 0 -i 18 -k AGT 
- -t 1.045739269 -s 9 -d -1 -p cbr -e 210 -c 2 -a 0 -i 18 -k AGT
h -t 1.045739269 -s 9 -d -1 -p cbr -e 210 -c 2 -a 0 -i 18 -k AGT
+ -t 1.059739269 -s 9 -d -1 -p cbr -e 210 -c 2 -a 0 -i 19 -k AGT 
- -t 1.059739269 -s 9 -d -1 -p cbr -e 210 -c 2 -a 0 -i 19 -k AGT
h -t 1.059739269 -s 9 -d -1 -p cbr -e 210 -c 2 -a 0 -i 19 -k AGT
+ -t 1.073739269 -s 9 -d -1 -p cbr -e 210 -c 2 -a 0 -i 20 -k AGT 
- -t 1.073739269 -s 9 -d -1 -p cbr -e 210 -c 2 -a 0 -i 20 -k AGT
h -t 1.073739269 -s 9 -d -1 -p cbr -e 210 -c 2 -a 0 -i 20 -k AGT
+ -t 1.087739269 -s 9 -d -1 -p cbr -e 210 -c 2 -a 0 -i 21 -k AGT 
- -t 1.087739269 -s 9 -d -1 -p cbr -e 210 -c 2 -a 0 -i 21 -k AGT
h -t 1.087739269 -s 9 -d -1 -p cbr -e 210 -c 2 -a 0 -i 21 -k AGT
+ -t 1.101739269 -s 9 -d -1 -p cbr -e 210 -c 2 -a 0 -i 22 -k AGT 
- -t 1.101739269 -s 9 -d -1 -p cbr -e 210 -c 2 -a 0 -i 22 -k AGT
h -t 1.101739269 -s 9 -d -1 -p cbr -e 210 -c 2 -a 0 -i 22 -k AGT
+ -t 1.115739269 -s 9 -d -1 -p cbr -e 210 -c 2 -a 0 -i 23 -k AGT 
- -t 1.115739269 -s 9 -d -1 -p cbr -e 210 -c 2 -a 0 -i 23 -k AGT
h -t 1.115739269 -s 9 -d -1 -p cbr -e 210 -c 2 -a 0 -i 23 -k AGT
+ -t 1.129739269 -s 9 -d -1 -p cbr -e 210 -c 2 -a 0 -i 24 -k AGT 
- -t 1.129739269 -s 9 -d -1 -p cbr -e 210 -c 2 -a 0 -i 24 -k AGT
h -t 1.129739269 -s 9 -d -1 -p cbr -e 210 -c 2 -a 0 -i 24 -k AGT
+ -t 1.143739269 -s 9 -d -1 -p cbr -e 210 -c 2 -a 0 -i 25 -k AGT 
- -t 1.143739269 -s 9 -d -1 -p cbr -e 210 -c 2 -a 0 -i 25 -k AGT
h -t 1.143739269 -s 9 -d -1 -p cbr -e 210 -c 2 -a 0 -i 25 -k AGT
+ -t 1.157739269 -s 9 -d -1 -p cbr -e 210 -c 2 -a 0 -i 26 -k AGT 
- -t 1.157739269 -s 9 -d -1 -p cbr -e 210 -c 2 -a 0 -i 26 -k AGT
h -t 1.157739269 -s 9 -d -1 -p cbr -e 210 -c 2 -a 0 -i 26 -k AGT
+ -t 1.171739269 -s 9 -d -1 -p cbr -e 210 -c 2 -a 0 -i 27 -k AGT 
- -t 1.171739269 -s 9 -d -1 -p cbr -e 210 -c 2 -a 0 -i 27 -k AGT
h -t 1.171739269 -s 9 -d -1 -p cbr -e 210 -c 2 -a 0 -i 27 -k AGT
+ -t 1.185739269 -s 9 -d -1 -p cbr -e 210 -c 2 -a 0 -i 28 -k AGT 
- -t 1.185739269 -s 9 -d -1 -p cbr -e 210 -c 2 -a 0 -i 28 -k AGT
h -t 1.185739269 -s 9 -d -1 -p cbr -e 210 -c 2 -a 0 -i 28 -k AGT
+ -t 1.199739269 -s 9 -d -1 -p cbr -e 210 -c 2 -a 0 -i 29 -k AGT 
- -t 1.199739269 -s 9 -d -1 -p cbr -e 210 -c 2 -a 0 -i 29 -k AGT
h -t 1.199739269 -s 9 -d -1 -p cbr -e 210 -c 2 -a 0 -i 29 -k AGT
+ -t 1.213739269 -s 9 -d -1 -p cbr -e 210 -c 2 -a 0 -i 30 -k AGT 
- -t 1.213739269 -s 9 -d -1 -p cbr -e 210 -c 2 -a 0 -i 30 -k AGT
h -t 1.213739269 -s 9 -d -1 -p cbr -e 210 -c 2 -a 0 -i 30 -k AGT
+ -t 1.227739269 -s 9 -d -1 -p cbr -e 210 -c 2 -a 0 -i 31 -k AGT 
- -t 1.227739269 -s 9 -d -1 -p cbr -e 210 -c 2 -a 0 -i 31 -k AGT
h -t 1.227739269 -s 9 -d -1 -p cbr -e 210 -c 2 -a 0 -i 31 -k AGT
+ -t 1.241739269 -s 9 -d -1 -p cbr -e 210 -c 2 -a 0 -i 32 -k AGT 
- -t 1.241739269 -s 9 -d -1 -p cbr -e 210 -c 2 -a 0 -i 32 -k AGT
h -t 1.241739269 -s 9 -d -1 -p cbr -e 210 -c 2 -a 0 -i 32 -k AGT
+ -t 1.255739269 -s 9 -d -1 -p cbr -e 210 -c 2 -a 0 -i 33 -k AGT 
- -t 1.255739269 -s 9 -d -1 -p cbr -e 210 -c 2 -a 0 -i 33 -k AGT
h -t 1.255739269 -s 9 -d -1 -p cbr -e 210 -c 2 -a 0 -i 33 -k AGT
+ -t 1.269739269 -s 9 -d -1 -p cbr -e 210 -c 2 -a 0 -i 34 -k AGT 
- -t 1.269739269 -s 9 -d -1 -p cbr -e 210 -c 2 -a 0 -i 34 -k AGT
h -t 1.269739269 -s 9 -d -1 -p cbr -e 210 -c 2 -a 0 -i 34 -k AGT
+ -t 1.283739269 -s 9 -d -1 -p cbr -e 210 -c 2 -a 0 -i 35 -k AGT 
- -t 1.283739269 -s 9 -d -1 -p cbr -e 210 -c 2 -a 0 -i 35 -k AGT
h -t 1.283739269 -s 9 -d -1 -p cbr -e 210 -c 2 -a 0 -i 35 -k AGT
+ -t 1.297739269 -s 9 -d -1 -p cbr -e 210 -c 2 -a 0 -i 36 -k AGT 
- -t 1.297739269 -s 9 -d -1 -p cbr -e 210 -c 2 -a 0 -i 36 -k AGT
h -t 1.297739269 -s 9 -d -1 -p cbr -e 210 -c 2 -a 0 -i 36 -k AGT
+ -t 1.311739269 -s 9 -d -1 -p cbr -e 210 -c 2 -a 0 -i 37 -k AGT 
- -t 1.311739269 -s 9 -d -1 -p cbr -e 210 -c 2 -a 0 -i 37 -k AGT
h -t 1.311739269 -s 9 -d -1 -p cbr -e 210 -c 2 -a 0 -i 37 -k AGT
+ -t 1.325739269 -s 9 -d -1 -p cbr -e 210 -c 2 -a 0 -i 38 -k AGT 
- -t 1.325739269 -s 9 -d -1 -p cbr -e 210 -c 2 -a 0 -i 38 -k AGT
h -t 1.325739269 -s 9 -d -1 -p cbr -e 210 -c 2 -a 0 -i 38 -k AGT
+ -t 1.339739269 -s 9 -d -1 -p cbr -e 210 -c 2 -a 0 -i 39 -k AGT 
- -t 1.339739269 -s 9 -d -1 -p cbr -e 210 -c 2 -a 0 -i 39 -k AGT
h -t 1.339739269 -s 9 -d -1 -p cbr -e 210 -c 2 -a 0 -i 39 -k AGT
+ -t 1.353739269 -s 9 -d -1 -p cbr -e 210 -c 2 -a 0 -i 40 -k AGT 
- -t 1.353739269 -s 9 -d -1 -p cbr -e 210 -c 2 -a 0 -i 40 -k AGT
h -t 1.353739269 -s 9 -d -1 -p cbr -e 210 -c 2 -a 0 -i 40 -k AGT
+ -t 1.367739269 -s 9 -d -1 -p cbr -e 210 -c 2 -a 0 -i 41 -k AGT 
- -t 1.367739269 -s 9 -d -1 -p cbr -e 210 -c 2 -a 0 -i 41 -k AGT
h -t 1.367739269 -s 9 -d -1 -p cbr -e 210 -c 2 -a 0 -i 41 -k AGT
+ -t 1.381739269 -s 9 -d -1 -p cbr -e 210 -c 2 -a 0 -i 42 -k AGT 
- -t 1.381739269 -s 9 -d -1 -p cbr -e 210 -c 2 -a 0 -i 42 -k AGT
h -t 1.381739269 -s 9 -d -1 -p cbr -e 210 -c 2 -a 0 -i 42 -k AGT
+ -t 1.395739269 -s 9 -d -1 -p cbr -e 210 -c 2 -a 0 -i 43 -k AGT 
- -t 1.395739269 -s 9 -d -1 -p cbr -e 210 -c 2 -a 0 -i 43 -k AGT
h -t 1.395739269 -s 9 -d -1 -p cbr -e 210 -c 2 -a 0 -i 43 -k AGT
+ -t 1.409739269 -s 9 -d -1 -p cbr -e 210 -c 2 -a 0 -i 44 -k AGT 
- -t 1.409739269 -s 9 -d -1 -p cbr -e 210 -c 2 -a 0 -i 44 -k AGT
h -t 1.409739269 -s 9 -d -1 -p cbr -e 210 -c 2 -a 0 -i 44 -k AGT
+ -t 1.423739269 -s 9 -d -1 -p cbr -e 210 -c 2 -a 0 -i 45 -k AGT 
- -t 1.423739269 -s 9 -d -1 -p cbr -e 210 -c 2 -a 0 -i 45 -k AGT
h -t 1.423739269 -s 9 -d -1 -p cbr -e 210 -c 2 -a 0 -i 45 -k AGT
+ -t 1.437739269 -s 9 -d -1 -p cbr -e 210 -c 2 -a 0 -i 46 -k AGT 
- -t 1.437739269 -s 9 -d -1 -p cbr -e 210 -c 2 -a 0 -i 46 -k AGT
h -t 1.437739269 -s 9 -d -1 -p cbr -e 210 -c 2 -a 0 -i 46 -k AGT
+ -t 1.451739269 -s 9 -d -1 -p cbr -e 210 -c 2 -a 0 -i 47 -k AGT 
- -t 1.451739269 -s 9 -d -1 -p cbr -e 210 -c 2 -a 0 -i 47 -k AGT
h -t 1.451739269 -s 9 -d -1 -p cbr -e 210 -c 2 -a 0 -i 47 -k AGT
+ -t 1.465739269 -s 9 -d -1 -p cbr -e 210 -c 2 -a 0 -i 48 -k AGT 
- -t 1.465739269 -s 9 -d -1 -p cbr -e 210 -c 2 -a 0 -i 48 -k AGT
h -t 1.465739269 -s 9 -d -1 -p cbr -e 210 -c 2 -a 0 -i 48 -k AGT
+ -t 1.479739269 -s 9 -d -1 -p cbr -e 210 -c 2 -a 0 -i 49 -k AGT 
- -t 1.479739269 -s 9 -d -1 -p cbr -e 210 -c 2 -a 0 -i 49 -k AGT
h -t 1.479739269 -s 9 -d -1 -p cbr -e 210 -c 2 -a 0 -i 49 -k AGT
+ -t 1.493739269 -s 9 -d -1 -p cbr -e 210 -c 2 -a 0 -i 50 -k AGT 
- -t 1.493739269 -s 9 -d -1 -p cbr -e 210 -c 2 -a 0 -i 50 -k AGT
h -t 1.493739269 -s 9 -d -1 -p cbr -e 210 -c 2 -a 0 -i 50 -k AGT
+ -t 1.507739269 -s 9 -d -1 -p cbr -e 210 -c 2 -a 0 -i 51 -k AGT 
- -t 1.507739269 -s 9 -d -1 -p cbr -e 210 -c 2 -a 0 -i 51 -k AGT
h -t 1.507739269 -s 9 -d -1 -p cbr -e 210 -c 2 -a 0 -i 51 -k AGT
+ -t 1.521739269 -s 9 -d -1 -p cbr -e 210 -c 2 -a 0 -i 52 -k AGT 
- -t 1.521739269 -s 9 -d -1 -p cbr -e 210 -c 2 -a 0 -i 52 -k AGT
h -t 1.521739269 -s 9 -d -1 -p cbr -e 210 -c 2 -a 0 -i 52 -k AGT
+ -t 1.535739269 -s 9 -d -1 -p cbr -e 210 -c 2 -a 0 -i 53 -k AGT 
- -t 1.535739269 -s 9 -d -1 -p cbr -e 210 -c 2 -a 0 -i 53 -k AGT
h -t 1.535739269 -s 9 -d -1 -p cbr -e 210 -c 2 -a 0 -i 53 -k AGT
+ -t 1.549739269 -s 9 -d -1 -p cbr -e 210 -c 2 -a 0 -i 54 -k AGT 
- -t 1.549739269 -s 9 -d -1 -p cbr -e 210 -c 2 -a 0 -i 54 -k AGT
h -t 1.549739269 -s 9 -d -1 -p cbr -e 210 -c 2 -a 0 -i 54 -k AGT
+ -t 1.563739269 -s 9 -d -1 -p cbr -e 210 -c 2 -a 0 -i 55 -k AGT 
- -t 1.563739269 -s 9 -d -1 -p cbr -e 210 -c 2 -a 0 -i 55 -k AGT
h -t 1.563739269 -s 9 -d -1 -p cbr -e 210 -c 2 -a 0 -i 55 -k AGT
+ -t 1.577739269 -s 9 -d -1 -p cbr -e 210 -c 2 -a 0 -i 56 -k AGT 
- -t 1.577739269 -s 9 -d -1 -p cbr -e 210 -c 2 -a 0 -i 56 -k AGT
h -t 1.577739269 -s 9 -d -1 -p cbr -e 210 -c 2 -a 0 -i 56 -k AGT
+ -t 1.591739269 -s 9 -d -1 -p cbr -e 210 -c 2 -a 0 -i 57 -k AGT 
- -t 1.591739269 -s 9 -d -1 -p cbr -e 210 -c 2 -a 0 -i 57 -k AGT
h -t 1.591739269 -s 9 -d -1 -p cbr -e 210 -c 2 -a 0 -i 57 -k AGT
+ -t 1.605739269 -s 9 -d -1 -p cbr -e 210 -c 2 -a 0 -i 58 -k AGT 
- -t 1.605739269 -s 9 -d -1 -p cbr -e 210 -c 2 -a 0 -i 58 -k AGT
h -t 1.605739269 -s 9 -d -1 -p cbr -e 210 -c 2 -a 0 -i 58 -k AGT
+ -t 1.619739269 -s 9 -d -1 -p cbr -e 210 -c 2 -a 0 -i 59 -k AGT 
- -t 1.619739269 -s 9 -d -1 -p cbr -e 210 -c 2 -a 0 -i 59 -k AGT
h -t 1.619739269 -s 9 -d -1 -p cbr -e 210 -c 2 -a 0 -i 59 -k AGT
+ -t 1.633739269 -s 9 -d -1 -p cbr -e 210 -c 2 -a 0 -i 60 -k AGT 
- -t 1.633739269 -s 9 -d -1 -p cbr -e 210 -c 2 -a 0 -i 60 -k AGT
h -t 1.633739269 -s 9 -d -1 -p cbr -e 210 -c 2 -a 0 -i 60 -k AGT
+ -t 1.647739269 -s 9 -d -1 -p cbr -e 210 -c 2 -a 0 -i 61 -k AGT 
- -t 1.647739269 -s 9 -d -1 -p cbr -e 210 -c 2 -a 0 -i 61 -k AGT
h -t 1.647739269 -s 9 -d -1 -p cbr -e 210 -c 2 -a 0 -i 61 -k AGT
+ -t 1.661739269 -s 9 -d -1 -p cbr -e 210 -c 2 -a 0 -i 62 -k AGT 
- -t 1.661739269 -s 9 -d -1 -p cbr -e 210 -c 2 -a 0 -i 62 -k AGT
h -t 1.661739269 -s 9 -d -1 -p cbr -e 210 -c 2 -a 0 -i 62 -k AGT
+ -t 1.675739269 -s 9 -d -1 -p cbr -e 210 -c 2 -a 0 -i 63 -k AGT 
- -t 1.675739269 -s 9 -d -1 -p cbr -e 210 -c 2 -a 0 -i 63 -k AGT
h -t 1.675739269 -s 9 -d -1 -p cbr -e 210 -c 2 -a 0 -i 63 -k AGT
+ -t 1.689739269 -s 9 -d -1 -p cbr -e 210 -c 2 -a 0 -i 64 -k AGT 
- -t 1.689739269 -s 9 -d -1 -p cbr -e 210 -c 2 -a 0 -i 64 -k AGT
h -t 1.689739269 -s 9 -d -1 -p cbr -e 210 -c 2 -a 0 -i 64 -k AGT
d -t 1.689739269 -s 9 -d -1 -p cbr -e 230 -c 2 -a 0 -i 0 -k RTR
+ -t 1.703739269 -s 9 -d -1 -p cbr -e 210 -c 2 -a 0 -i 65 -k AGT 
- -t 1.703739269 -s 9 -d -1 -p cbr -e 210 -c 2 -a 0 -i 65 -k AGT
h -t 1.703739269 -s 9 -d -1 -p cbr -e 210 -c 2 -a 0 -i 65 -k AGT
d -t 1.703739269 -s 9 -d -1 -p cbr -e 230 -c 2 -a 0 -i 1 -k RTR
+ -t 1.717739269 -s 9 -d -1 -p cbr -e 210 -c 2 -a 0 -i 66 -k AGT 
- -t 1.717739269 -s 9 -d -1 -p cbr -e 210 -c 2 -a 0 -i 66 -k AGT
h -t 1.717739269 -s 9 -d -1 -p cbr -e 210 -c 2 -a 0 -i 66 -k AGT
d -t 1.717739269 -s 9 -d -1 -p cbr -e 230 -c 2 -a 0 -i 2 -k RTR
+ -t 1.731739269 -s 9 -d -1 -p cbr -e 210 -c 2 -a 0 -i 67 -k AGT 
- -t 1.731739269 -s 9 -d -1 -p cbr -e 210 -c 2 -a 0 -i 67 -k AGT
h -t 1.731739269 -s 9 -d -1 -p cbr -e 210 -c 2 -a 0 -i 67 -k AGT
d -t 1.731739269 -s 9 -d -1 -p cbr -e 230 -c 2 -a 0 -i 3 -k RTR
+ -t 1.745739269 -s 9 -d -1 -p cbr -e 210 -c 2 -a 0 -i 68 -k AGT 
- -t 1.745739269 -s 9 -d -1 -p cbr -e 210 -c 2 -a 0 -i 68 -k AGT
h -t 1.745739269 -s 9 -d -1 -p cbr -e 210 -c 2 -a 0 -i 68 -k AGT
d -t 1.745739269 -s 9 -d -1 -p cbr -e 230 -c 2 -a 0 -i 4 -k RTR
+ -t 1.759739269 -s 9 -d -1 -p cbr -e 210 -c 2 -a 0 -i 69 -k AGT 
- -t 1.759739269 -s 9 -d -1 -p cbr -e 210 -c 2 -a 0 -i 69 -k AGT
h -t 1.759739269 -s 9 -d -1 -p cbr -e 210 -c 2 -a 0 -i 69 -k AGT
d -t 1.759739269 -s 9 -d -1 -p cbr -e 230 -c 2 -a 0 -i 5 -k RTR
+ -t 1.773739269 -s 9 -d -1 -p cbr -e 210 -c 2 -a 0 -i 70 -k AGT 
- -t 1.773739269 -s 9 -d -1 -p cbr -e 210 -c 2 -a 0 -i 70 -k AGT
h -t 1.773739269 -s 9 -d -1 -p cbr -e 210 -c 2 -a 0 -i 70 -k AGT
d -t 1.773739269 -s 9 -d -1 -p cbr -e 230 -c 2 -a 0 -i 6 -k RTR
+ -t 1.787739269 -s 9 -d -1 -p cbr -e 210 -c 2 -a 0 -i 71 -k AGT 
- -t 1.787739269 -s 9 -d -1 -p cbr -e 210 -c 2 -a 0 -i 71 -k AGT
h -t 1.787739269 -s 9 -d -1 -p cbr -e 210 -c 2 -a 0 -i 71 -k AGT
d -t 1.787739269 -s 9 -d -1 -p cbr -e 230 -c 2 -a 0 -i 7 -k RTR
+ -t 1.801739269 -s 9 -d -1 -p cbr -e 210 -c 2 -a 0 -i 72 -k AGT 
- -t 1.801739269 -s 9 -d -1 -p cbr -e 210 -c 2 -a 0 -i 72 -k AGT
h -t 1.801739269 -s 9 -d -1 -p cbr -e 210 -c 2 -a 0 -i 72 -k AGT
d -t 1.801739269 -s 9 -d -1 -p cbr -e 230 -c 2 -a 0 -i 8 -k RTR
+ -t 1.815739269 -s 9 -d -1 -p cbr -e 210 -c 2 -a 0 -i 73 -k AGT 
- -t 1.815739269 -s 9 -d -1 -p cbr -e 210 -c 2 -a 0 -i 73 -k AGT
h -t 1.815739269 -s 9 -d -1 -p cbr -e 210 -c 2 -a 0 -i 73 -k AGT
d -t 1.815739269 -s 9 -d -1 -p cbr -e 230 -c 2 -a 0 -i 9 -k RTR
+ -t 1.829739269 -s 9 -d -1 -p cbr -e 210 -c 2 -a 0 -i 74 -k AGT 
- -t 1.829739269 -s 9 -d -1 -p cbr -e 210 -c 2 -a 0 -i 74 -k AGT
h -t 1.829739269 -s 9 -d -1 -p cbr -e 210 -c 2 -a 0 -i 74 -k AGT
d -t 1.829739269 -s 9 -d -1 -p cbr -e 230 -c 2 -a 0 -i 10 -k RTR
+ -t 1.843739269 -s 9 -d -1 -p cbr -e 210 -c 2 -a 0 -i 75 -k AGT 
- -t 1.843739269 -s 9 -d -1 -p cbr -e 210 -c 2 -a 0 -i 75 -k AGT
h -t 1.843739269 -s 9 -d -1 -p cbr -e 210 -c 2 -a 0 -i 75 -k AGT
d -t 1.843739269 -s 9 -d -1 -p cbr -e 230 -c 2 -a 0 -i 11 -k RTR
+ -t 1.857739269 -s 9 -d -1 -p cbr -e 210 -c 2 -a 0 -i 76 -k AGT 
- -t 1.857739269 -s 9 -d -1 -p cbr -e 210 -c 2 -a 0 -i 76 -k AGT
h -t 1.857739269 -s 9 -d -1 -p cbr -e 210 -c 2 -a 0 -i 76 -k AGT
d -t 1.857739269 -s 9 -d -1 -p cbr -e 230 -c 2 -a 0 -i 12 -k RTR
+ -t 1.871739269 -s 9 -d -1 -p cbr -e 210 -c 2 -a 0 -i 77 -k AGT 
- -t 1.871739269 -s 9 -d -1 -p cbr -e 210 -c 2 -a 0 -i 77 -k AGT
h -t 1.871739269 -s 9 -d -1 -p cbr -e 210 -c 2 -a 0 -i 77 -k AGT
d -t 1.871739269 -s 9 -d -1 -p cbr -e 230 -c 2 -a 0 -i 13 -k RTR
+ -t 1.885739269 -s 9 -d -1 -p cbr -e 210 -c 2 -a 0 -i 78 -k AGT 
- -t 1.885739269 -s 9 -d -1 -p cbr -e 210 -c 2 -a 0 -i 78 -k AGT
h -t 1.885739269 -s 9 -d -1 -p cbr -e 210 -c 2 -a 0 -i 78 -k AGT
d -t 1.885739269 -s 9 -d -1 -p cbr -e 230 -c 2 -a 0 -i 14 -k RTR
+ -t 1.899739269 -s 9 -d -1 -p cbr -e 210 -c 2 -a 0 -i 79 -k AGT 
- -t 1.899739269 -s 9 -d -1 -p cbr -e 210 -c 2 -a 0 -i 79 -k AGT
h -t 1.899739269 -s 9 -d -1 -p cbr -e 210 -c 2 -a 0 -i 79 -k AGT
d -t 1.899739269 -s 9 -d -1 -p cbr -e 230 -c 2 -a 0 -i 15 -k RTR
+ -t 1.913739269 -s 9 -d -1 -p cbr -e 210 -c 2 -a 0 -i 80 -k AGT 
- -t 1.913739269 -s 9 -d -1 -p cbr -e 210 -c 2 -a 0 -i 80 -k AGT
h -t 1.913739269 -s 9 -d -1 -p cbr -e 210 -c 2 -a 0 -i 80 -k AGT
d -t 1.913739269 -s 9 -d -1 -p cbr -e 230 -c 2 -a 0 -i 16 -k RTR
+ -t 1.927739269 -s 9 -d -1 -p cbr -e 210 -c 2 -a 0 -i 81 -k AGT 
- -t 1.927739269 -s 9 -d -1 -p cbr -e 210 -c 2 -a 0 -i 81 -k AGT
h -t 1.927739269 -s 9 -d -1 -p cbr -e 210 -c 2 -a 0 -i 81 -k AGT
d -t 1.927739269 -s 9 -d -1 -p cbr -e 230 -c 2 -a 0 -i 17 -k RTR
+ -t 1.941739269 -s 9 -d -1 -p cbr -e 210 -c 2 -a 0 -i 82 -k AGT 
- -t 1.941739269 -s 9 -d -1 -p cbr -e 210 -c 2 -a 0 -i 82 -k AGT
h -t 1.941739269 -s 9 -d -1 -p cbr -e 210 -c 2 -a 0 -i 82 -k AGT
d -t 1.941739269 -s 9 -d -1 -p cbr -e 230 -c 2 -a 0 -i 18 -k RTR
+ -t 1.955739269 -s 9 -d -1 -p cbr -e 210 -c 2 -a 0 -i 83 -k AGT 
- -t 1.955739269 -s 9 -d -1 -p cbr -e 210 -c 2 -a 0 -i 83 -k AGT
h -t 1.955739269 -s 9 -d -1 -p cbr -e 210 -c 2 -a 0 -i 83 -k AGT
d -t 1.955739269 -s 9 -d -1 -p cbr -e 230 -c 2 -a 0 -i 19 -k RTR
+ -t 1.969739269 -s 9 -d -1 -p cbr -e 210 -c 2 -a 0 -i 84 -k AGT 
- -t 1.969739269 -s 9 -d -1 -p cbr -e 210 -c 2 -a 0 -i 84 -k AGT
h -t 1.969739269 -s 9 -d -1 -p cbr -e 210 -c 2 -a 0 -i 84 -k AGT
d -t 1.969739269 -s 9 -d -1 -p cbr -e 230 -c 2 -a 0 -i 20 -k RTR
+ -t 1.983739269 -s 9 -d -1 -p cbr -e 210 -c 2 -a 0 -i 85 -k AGT 
- -t 1.983739269 -s 9 -d -1 -p cbr -e 210 -c 2 -a 0 -i 85 -k AGT
h -t 1.983739269 -s 9 -d -1 -p cbr -e 210 -c 2 -a 0 -i 85 -k AGT
d -t 1.983739269 -s 9 -d -1 -p cbr -e 230 -c 2 -a 0 -i 21 -k RTR
+ -t 1.997739269 -s 9 -d -1 -p cbr -e 210 -c 2 -a 0 -i 86 -k AGT 
- -t 1.997739269 -s 9 -d -1 -p cbr -e 210 -c 2 -a 0 -i 86 -k AGT
h -t 1.997739269 -s 9 -d -1 -p cbr -e 210 -c 2 -a 0 -i 86 -k AGT
d -t 1.997739269 -s 9 -d -1 -p cbr -e 230 -c 2 -a 0 -i 22 -k RTR
+ -t 2.011739269 -s 9 -d -1 -p cbr -e 210 -c 2 -a 0 -i 87 -k AGT 
- -t 2.011739269 -s 9 -d -1 -p cbr -e 210 -c 2 -a 0 -i 87 -k AGT
h -t 2.011739269 -s 9 -d -1 -p cbr -e 210 -c 2 -a 0 -i 87 -k AGT
d -t 2.011739269 -s 9 -d -1 -p cbr -e 230 -c 2 -a 0 -i 23 -k RTR
+ -t 2.025739269 -s 9 -d -1 -p cbr -e 210 -c 2 -a 0 -i 88 -k AGT 
- -t 2.025739269 -s 9 -d -1 -p cbr -e 210 -c 2 -a 0 -i 88 -k AGT
h -t 2.025739269 -s 9 -d -1 -p cbr -e 210 -c 2 -a 0 -i 88 -k AGT
d -t 2.025739269 -s 9 -d -1 -p cbr -e 230 -c 2 -a 0 -i 24 -k RTR
+ -t 2.039739269 -s 9 -d -1 -p cbr -e 210 -c 2 -a 0 -i 89 -k AGT 
- -t 2.039739269 -s 9 -d -1 -p cbr -e 210 -c 2 -a 0 -i 89 -k AGT
h -t 2.039739269 -s 9 -d -1 -p cbr -e 210 -c 2 -a 0 -i 89 -k AGT
d -t 2.039739269 -s 9 -d -1 -p cbr -e 230 -c 2 -a 0 -i 25 -k RTR
+ -t 2.053739269 -s 9 -d -1 -p cbr -e 210 -c 2 -a 0 -i 90 -k AGT 
- -t 2.053739269 -s 9 -d -1 -p cbr -e 210 -c 2 -a 0 -i 90 -k AGT
h -t 2.053739269 -s 9 -d -1 -p cbr -e 210 -c 2 -a 0 -i 90 -k AGT
d -t 2.053739269 -s 9 -d -1 -p cbr -e 230 -c 2 -a 0 -i 26 -k RTR
+ -t 2.067739269 -s 9 -d -1 -p cbr -e 210 -c 2 -a 0 -i 91 -k AGT 
- -t 2.067739269 -s 9 -d -1 -p cbr -e 210 -c 2 -a 0 -i 91 -k AGT
h -t 2.067739269 -s 9 -d -1 -p cbr -e 210 -c 2 -a 0 -i 91 -k AGT
d -t 2.067739269 -s 9 -d -1 -p cbr -e 230 -c 2 -a 0 -i 27 -k RTR
+ -t 2.081739269 -s 9 -d -1 -p cbr -e 210 -c 2 -a 0 -i 92 -k AGT 
- -t 2.081739269 -s 9 -d -1 -p cbr -e 210 -c 2 -a 0 -i 92 -k AGT
h -t 2.081739269 -s 9 -d -1 -p cbr -e 210 -c 2 -a 0 -i 92 -k AGT
d -t 2.081739269 -s 9 -d -1 -p cbr -e 230 -c 2 -a 0 -i 28 -k RTR
+ -t 2.095739269 -s 9 -d -1 -p cbr -e 210 -c 2 -a 0 -i 93 -k AGT 
- -t 2.095739269 -s 9 -d -1 -p cbr -e 210 -c 2 -a 0 -i 93 -k AGT
h -t 2.095739269 -s 9 -d -1 -p cbr -e 210 -c 2 -a 0 -i 93 -k AGT
d -t 2.095739269 -s 9 -d -1 -p cbr -e 230 -c 2 -a 0 -i 29 -k RTR
+ -t 2.109739269 -s 9 -d -1 -p cbr -e 210 -c 2 -a 0 -i 94 -k AGT 
- -t 2.109739269 -s 9 -d -1 -p cbr -e 210 -c 2 -a 0 -i 94 -k AGT
h -t 2.109739269 -s 9 -d -1 -p cbr -e 210 -c 2 -a 0 -i 94 -k AGT
d -t 2.109739269 -s 9 -d -1 -p cbr -e 230 -c 2 -a 0 -i 30 -k RTR
+ -t 2.123739269 -s 9 -d -1 -p cbr -e 210 -c 2 -a 0 -i 95 -k AGT 
- -t 2.123739269 -s 9 -d -1 -p cbr -e 210 -c 2 -a 0 -i 95 -k AGT
h -t 2.123739269 -s 9 -d -1 -p cbr -e 210 -c 2 -a 0 -i 95 -k AGT
d -t 2.123739269 -s 9 -d -1 -p cbr -e 230 -c 2 -a 0 -i 31 -k RTR
+ -t 2.137739269 -s 9 -d -1 -p cbr -e 210 -c 2 -a 0 -i 96 -k AGT 
- -t 2.137739269 -s 9 -d -1 -p cbr -e 210 -c 2 -a 0 -i 96 -k AGT
h -t 2.137739269 -s 9 -d -1 -p cbr -e 210 -c 2 -a 0 -i 96 -k AGT
d -t 2.137739269 -s 9 -d -1 -p cbr -e 230 -c 2 -a 0 -i 32 -k RTR
+ -t 2.151739269 -s 9 -d -1 -p cbr -e 210 -c 2 -a 0 -i 97 -k AGT 
- -t 2.151739269 -s 9 -d -1 -p cbr -e 210 -c 2 -a 0 -i 97 -k AGT
h -t 2.151739269 -s 9 -d -1 -p cbr -e 210 -c 2 -a 0 -i 97 -k AGT
d -t 2.151739269 -s 9 -d -1 -p cbr -e 230 -c 2 -a 0 -i 33 -k RTR
+ -t 2.165739269 -s 9 -d -1 -p cbr -e 210 -c 2 -a 0 -i 98 -k AGT 
- -t 2.165739269 -s 9 -d -1 -p cbr -e 210 -c 2 -a 0 -i 98 -k AGT
h -t 2.165739269 -s 9 -d -1 -p cbr -e 210 -c 2 -a 0 -i 98 -k AGT
d -t 2.165739269 -s 9 -d -1 -p cbr -e 230 -c 2 -a 0 -i 34 -k RTR
+ -t 2.179739269 -s 9 -d -1 -p cbr -e 210 -c 2 -a 0 -i 99 -k AGT 
- -t 2.179739269 -s 9 -d -1 -p cbr -e 210 -c 2 -a 0 -i 99 -k AGT
h -t 2.179739269 -s 9 -d -1 -p cbr -e 210 -c 2 -a 0 -i 99 -k AGT
d -t 2.179739269 -s 9 -d -1 -p cbr -e 230 -c 2 -a 0 -i 35 -k RTR
+ -t 2.193739269 -s 9 -d -1 -p cbr -e 210 -c 2 -a 0 -i 100 -k AGT 
- -t 2.193739269 -s 9 -d -1 -p cbr -e 210 -c 2 -a 0 -i 100 -k AGT
h -t 2.193739269 -s 9 -d -1 -p cbr -e 210 -c 2 -a 0 -i 100 -k AGT
d -t 2.193739269 -s 9 -d -1 -p cbr -e 230 -c 2 -a 0 -i 36 -k RTR
+ -t 2.207739269 -s 9 -d -1 -p cbr -e 210 -c 2 -a 0 -i 101 -k AGT 
- -t 2.207739269 -s 9 -d -1 -p cbr -e 210 -c 2 -a 0 -i 101 -k AGT
h -t 2.207739269 -s 9 -d -1 -p cbr -e 210 -c 2 -a 0 -i 101 -k AGT
d -t 2.207739269 -s 9 -d -1 -p cbr -e 230 -c 2 -a 0 -i 37 -k RTR
+ -t 2.221739269 -s 9 -d -1 -p cbr -e 210 -c 2 -a 0 -i 102 -k AGT 
- -t 2.221739269 -s 9 -d -1 -p cbr -e 210 -c 2 -a 0 -i 102 -k AGT
h -t 2.221739269 -s 9 -d -1 -p cbr -e 210 -c 2 -a 0 -i 102 -k AGT
d -t 2.221739269 -s 9 -d -1 -p cbr -e 230 -c 2 -a 0 -i 38 -k RTR
+ -t 2.235739269 -s 9 -d -1 -p cbr -e 210 -c 2 -a 0 -i 103 -k AGT 
- -t 2.235739269 -s 9 -d -1 -p cbr -e 210 -c 2 -a 0 -i 103 -k AGT
h -t 2.235739269 -s 9 -d -1 -p cbr -e 210 -c 2 -a 0 -i 103 -k AGT
d -t 2.235739269 -s 9 -d -1 -p cbr -e 230 -c 2 -a 0 -i 39 -k RTR
+ -t 2.249739269 -s 9 -d -1 -p cbr -e 210 -c 2 -a 0 -i 104 -k AGT 
- -t 2.249739269 -s 9 -d -1 -p cbr -e 210 -c 2 -a 0 -i 104 -k AGT
h -t 2.249739269 -s 9 -d -1 -p cbr -e 210 -c 2 -a 0 -i 104 -k AGT
d -t 2.249739269 -s 9 -d -1 -p cbr -e 230 -c 2 -a 0 -i 40 -k RTR
+ -t 2.263739269 -s 9 -d -1 -p cbr -e 210 -c 2 -a 0 -i 105 -k AGT 
- -t 2.263739269 -s 9 -d -1 -p cbr -e 210 -c 2 -a 0 -i 105 -k AGT
h -t 2.263739269 -s 9 -d -1 -p cbr -e 210 -c 2 -a 0 -i 105 -k AGT
d -t 2.263739269 -s 9 -d -1 -p cbr -e 230 -c 2 -a 0 -i 41 -k RTR
+ -t 2.277739269 -s 9 -d -1 -p cbr -e 210 -c 2 -a 0 -i 106 -k AGT 
- -t 2.277739269 -s 9 -d -1 -p cbr -e 210 -c 2 -a 0 -i 106 -k AGT
h -t 2.277739269 -s 9 -d -1 -p cbr -e 210 -c 2 -a 0 -i 106 -k AGT
d -t 2.277739269 -s 9 -d -1 -p cbr -e 230 -c 2 -a 0 -i 42 -k RTR
+ -t 2.291739269 -s 9 -d -1 -p cbr -e 210 -c 2 -a 0 -i 107 -k AGT 
- -t 2.291739269 -s 9 -d -1 -p cbr -e 210 -c 2 -a 0 -i 107 -k AGT
h -t 2.291739269 -s 9 -d -1 -p cbr -e 210 -c 2 -a 0 -i 107 -k AGT
d -t 2.291739269 -s 9 -d -1 -p cbr -e 230 -c 2 -a 0 -i 43 -k RTR
+ -t 2.305739269 -s 9 -d -1 -p cbr -e 210 -c 2 -a 0 -i 108 -k AGT 
- -t 2.305739269 -s 9 -d -1 -p cbr -e 210 -c 2 -a 0 -i 108 -k AGT
h -t 2.305739269 -s 9 -d -1 -p cbr -e 210 -c 2 -a 0 -i 108 -k AGT
d -t 2.305739269 -s 9 -d -1 -p cbr -e 230 -c 2 -a 0 -i 44 -k RTR
+ -t 2.319739269 -s 9 -d -1 -p cbr -e 210 -c 2 -a 0 -i 109 -k AGT 
- -t 2.319739269 -s 9 -d -1 -p cbr -e 210 -c 2 -a 0 -i 109 -k AGT
h -t 2.319739269 -s 9 -d -1 -p cbr -e 210 -c 2 -a 0 -i 109 -k AGT
d -t 2.319739269 -s 9 -d -1 -p cbr -e 230 -c 2 -a 0 -i 45 -k RTR
+ -t 2.333739269 -s 9 -d -1 -p cbr -e 210 -c 2 -a 0 -i 110 -k AGT 
- -t 2.333739269 -s 9 -d -1 -p cbr -e 210 -c 2 -a 0 -i 110 -k AGT
h -t 2.333739269 -s 9 -d -1 -p cbr -e 210 -c 2 -a 0 -i 110 -k AGT
d -t 2.333739269 -s 9 -d -1 -p cbr -e 230 -c 2 -a 0 -i 46 -k RTR
+ -t 2.347739269 -s 9 -d -1 -p cbr -e 210 -c 2 -a 0 -i 111 -k AGT 
- -t 2.347739269 -s 9 -d -1 -p cbr -e 210 -c 2 -a 0 -i 111 -k AGT
h -t 2.347739269 -s 9 -d -1 -p cbr -e 210 -c 2 -a 0 -i 111 -k AGT
d -t 2.347739269 -s 9 -d -1 -p cbr -e 230 -c 2 -a 0 -i 47 -k RTR
+ -t 2.361739269 -s 9 -d -1 -p cbr -e 210 -c 2 -a 0 -i 112 -k AGT 
- -t 2.361739269 -s 9 -d -1 -p cbr -e 210 -c 2 -a 0 -i 112 -k AGT
h -t 2.361739269 -s 9 -d -1 -p cbr -e 210 -c 2 -a 0 -i 112 -k AGT
d -t 2.361739269 -s 9 -d -1 -p cbr -e 230 -c 2 -a 0 -i 48 -k RTR
+ -t 2.375739269 -s 9 -d -1 -p cbr -e 210 -c 2 -a 0 -i 113 -k AGT 
- -t 2.375739269 -s 9 -d -1 -p cbr -e 210 -c 2 -a 0 -i 113 -k AGT
h -t 2.375739269 -s 9 -d -1 -p cbr -e 210 -c 2 -a 0 -i 113 -k AGT
d -t 2.375739269 -s 9 -d -1 -p cbr -e 230 -c 2 -a 0 -i 49 -k RTR
+ -t 2.389739269 -s 9 -d -1 -p cbr -e 210 -c 2 -a 0 -i 114 -k AGT 
- -t 2.389739269 -s 9 -d -1 -p cbr -e 210 -c 2 -a 0 -i 114 -k AGT
h -t 2.389739269 -s 9 -d -1 -p cbr -e 210 -c 2 -a 0 -i 114 -k AGT
d -t 2.389739269 -s 9 -d -1 -p cbr -e 230 -c 2 -a 0 -i 50 -k RTR
+ -t 2.403739269 -s 9 -d -1 -p cbr -e 210 -c 2 -a 0 -i 115 -k AGT 
- -t 2.403739269 -s 9 -d -1 -p cbr -e 210 -c 2 -a 0 -i 115 -k AGT
h -t 2.403739269 -s 9 -d -1 -p cbr -e 210 -c 2 -a 0 -i 115 -k AGT
d -t 2.403739269 -s 9 -d -1 -p cbr -e 230 -c 2 -a 0 -i 51 -k RTR
+ -t 2.417739269 -s 9 -d -1 -p cbr -e 210 -c 2 -a 0 -i 116 -k AGT 
- -t 2.417739269 -s 9 -d -1 -p cbr -e 210 -c 2 -a 0 -i 116 -k AGT
h -t 2.417739269 -s 9 -d -1 -p cbr -e 210 -c 2 -a 0 -i 116 -k AGT
d -t 2.417739269 -s 9 -d -1 -p cbr -e 230 -c 2 -a 0 -i 52 -k RTR
+ -t 2.431739269 -s 9 -d -1 -p cbr -e 210 -c 2 -a 0 -i 117 -k AGT 
- -t 2.431739269 -s 9 -d -1 -p cbr -e 210 -c 2 -a 0 -i 117 -k AGT
h -t 2.431739269 -s 9 -d -1 -p cbr -e 210 -c 2 -a 0 -i 117 -k AGT
d -t 2.431739269 -s 9 -d -1 -p cbr -e 230 -c 2 -a 0 -i 53 -k RTR
+ -t 2.445739269 -s 9 -d -1 -p cbr -e 210 -c 2 -a 0 -i 118 -k AGT 
- -t 2.445739269 -s 9 -d -1 -p cbr -e 210 -c 2 -a 0 -i 118 -k AGT
h -t 2.445739269 -s 9 -d -1 -p cbr -e 210 -c 2 -a 0 -i 118 -k AGT
d -t 2.445739269 -s 9 -d -1 -p cbr -e 230 -c 2 -a 0 -i 54 -k RTR
+ -t 2.459739269 -s 9 -d -1 -p cbr -e 210 -c 2 -a 0 -i 119 -k AGT 
- -t 2.459739269 -s 9 -d -1 -p cbr -e 210 -c 2 -a 0 -i 119 -k AGT
h -t 2.459739269 -s 9 -d -1 -p cbr -e 210 -c 2 -a 0 -i 119 -k AGT
d -t 2.459739269 -s 9 -d -1 -p cbr -e 230 -c 2 -a 0 -i 55 -k RTR
+ -t 2.473739269 -s 9 -d -1 -p cbr -e 210 -c 2 -a 0 -i 120 -k AGT 
- -t 2.473739269 -s 9 -d -1 -p cbr -e 210 -c 2 -a 0 -i 120 -k AGT
h -t 2.473739269 -s 9 -d -1 -p cbr -e 210 -c 2 -a 0 -i 120 -k AGT
d -t 2.473739269 -s 9 -d -1 -p cbr -e 230 -c 2 -a 0 -i 56 -k RTR
+ -t 2.487739269 -s 9 -d -1 -p cbr -e 210 -c 2 -a 0 -i 121 -k AGT 
- -t 2.487739269 -s 9 -d -1 -p cbr -e 210 -c 2 -a 0 -i 121 -k AGT
h -t 2.487739269 -s 9 -d -1 -p cbr -e 210 -c 2 -a 0 -i 121 -k AGT
d -t 2.487739269 -s 9 -d -1 -p cbr -e 230 -c 2 -a 0 -i 57 -k RTR
+ -t 2.501739269 -s 9 -d -1 -p cbr -e 210 -c 2 -a 0 -i 122 -k AGT 
- -t 2.501739269 -s 9 -d -1 -p cbr -e 210 -c 2 -a 0 -i 122 -k AGT
h -t 2.501739269 -s 9 -d -1 -p cbr -e 210 -c 2 -a 0 -i 122 -k AGT
d -t 2.501739269 -s 9 -d -1 -p cbr -e 230 -c 2 -a 0 -i 58 -k RTR
+ -t 2.515739269 -s 9 -d -1 -p cbr -e 210 -c 2 -a 0 -i 123 -k AGT 
- -t 2.515739269 -s 9 -d -1 -p cbr -e 210 -c 2 -a 0 -i 123 -k AGT
h -t 2.515739269 -s 9 -d -1 -p cbr -e 210 -c 2 -a 0 -i 123 -k AGT
d -t 2.515739269 -s 9 -d -1 -p cbr -e 230 -c 2 -a 0 -i 59 -k RTR
+ -t 2.529739269 -s 9 -d -1 -p cbr -e 210 -c 2 -a 0 -i 124 -k AGT 
- -t 2.529739269 -s 9 -d -1 -p cbr -e 210 -c 2 -a 0 -i 124 -k AGT
h -t 2.529739269 -s 9 -d -1 -p cbr -e 210 -c 2 -a 0 -i 124 -k AGT
d -t 2.529739269 -s 9 -d -1 -p cbr -e 230 -c 2 -a 0 -i 60 -k RTR
+ -t 2.543739269 -s 9 -d -1 -p cbr -e 210 -c 2 -a 0 -i 125 -k AGT 
- -t 2.543739269 -s 9 -d -1 -p cbr -e 210 -c 2 -a 0 -i 125 -k AGT
h -t 2.543739269 -s 9 -d -1 -p cbr -e 210 -c 2 -a 0 -i 125 -k AGT
d -t 2.543739269 -s 9 -d -1 -p cbr -e 230 -c 2 -a 0 -i 61 -k RTR
+ -t 2.557739269 -s 9 -d -1 -p cbr -e 210 -c 2 -a 0 -i 126 -k AGT 
- -t 2.557739269 -s 9 -d -1 -p cbr -e 210 -c 2 -a 0 -i 126 -k AGT