s 4.006838288 _15_ AGT  --- 2 0 cbr 210 [0 0 0 0] ------- [15:1 5:0 32 0] [0] 0 0
s 4.174838288 _15_ AGT  --- 2 1 cbr 210 [0 0 0 0] ------- [15:1 5:0 32 0] [1] 0 0
s 4.342838288 _15_ AGT  --- 2 2 cbr 210 [0 0 0 0] ------- [15:1 5:0 32 0] [2] 0 0
s 4.510838288 _15_ AGT  --- 2 3 cbr 210 [0 0 0 0] ------- [15:1 5:0 32 0] [3] 0 0
s 4.678838288 _15_ AGT  --- 2 4 cbr 210 [0 0 0 0] ------- [15:1 5:0 32 0] [4] 0 0
s 4.846838288 _15_ AGT  --- 2 5 cbr 210 [0 0 0 0] ------- [15:1 5:0 32 0] [5] 0 0
s 5.014838288 _15_ AGT  --- 2 6 cbr 210 [0 0 0 0] ------- [15:1 5:0 32 0] [6] 0 0
s 5.182838288 _15_ AGT  --- 2 7 cbr 210 [0 0 0 0] ------- [15:1 5:0 32 0] [7] 0 0
s 5.350838288 _15_ AGT  --- 2 8 cbr 210 [0 0 0 0] ------- [15:1 5:0 32 0] [8] 0 0
s 5.518838288 _15_ AGT  --- 2 9 cbr 210 [0 0 0 0] ------- [15:1 5:0 32 0] [9] 0 0
r 5.629153667 _5_ AGT  --- 2 0 cbr 230 [5 5 a 0] ------- [15:1 5:0 29 5] [0] 2 0
s 5.686838288 _15_ AGT  --- 2 10 cbr 210 [0 0 0 0] ------- [15:1 5:0 32 0] [10] 0 0
r 5.689153667 _5_ AGT  --- 2 1 cbr 230 [5 5 a 0] ------- [15:1 5:0 29 5] [1] 2 0
r 5.749153667 _5_ AGT  --- 2 2 cbr 230 [5 5 a 0] ------- [15:1 5:0 29 5] [2] 2 0
r 5.809153667 _5_ AGT  --- 2 3 cbr 230 [5 5 a 0] ------- [15:1 5:0 29 5] [3] 2 0
s 5.854838288 _15_ AGT  --- 2 11 cbr 210 [0 0 0 0] ------- [15:1 5:0 32 0] [11] 0 0
s 5.862495399 _11_ AGT  --- 6 12 cbr 210 [0 0 0 0] ------- [11:0 18:0 32 0] [0] 0 0
r 5.869153667 _5_ AGT  --- 2 4 cbr 230 [5 5 a 0] ------- [15:1 5:0 29 5] [4] 2 0
r 5.929153667 _5_ AGT  --- 2 5 cbr 230 [5 5 a 0] ------- [15:1 5:0 29 5] [5] 2 0
r 5.989153667 _5_ AGT  --- 2 6 cbr 230 [5 5 a 0] ------- [15:1 5:0 29 5] [6] 2 0
s 6.022838288 _15_ AGT  --- 2 13 cbr 210 [0 0 0 0] ------- [15:1 5:0 32 0] [12] 0 0
s 6.030495399 _11_ AGT  --- 6 14 cbr 210 [0 0 0 0] ------- [11:0 18:0 32 0] [1] 0 0
r 6.049153667 _5_ AGT  --- 2 7 cbr 230 [5 5 a 0] ------- [15:1 5:0 29 5] [7] 2 0
r 6.109153667 _5_ AGT  --- 2 8 cbr 230 [5 5 a 0] ------- [15:1 5:0 29 5] [8] 2 0
r 6.169153667 _5_ AGT  --- 2 9 cbr 230 [5 5 a 0] ------- [15:1 5:0 29 5] [9] 2 0
s 6.190838288 _15_ AGT  --- 2 15 cbr 210 [0 0 0 0] ------- [15:1 5:0 32 0] [13] 0 0
s 6.198495399 _11_ AGT  --- 6 16 cbr 210 [0 0 0 0] ------- [11:0 18:0 32 0] [2] 0 0
r 6.229153667 _5_ AGT  --- 2 10 cbr 230 [5 5 a 0] ------- [15:1 5:0 29 5] [10] 2 0
r 6.289153667 _5_ AGT  --- 2 11 cbr 230 [5 5 a 0] ------- [15:1 5:0 29 5] [11] 2 0
r 6.349153667 _5_ AGT  --- 2 13 cbr 230 [5 5 a 0] ------- [15:1 5:0 29 5] [12] 2 0
s 6.358838288 _15_ AGT  --- 2 17 cbr 210 [0 0 0 0] ------- [15:1 5:0 32 0] [14] 0 0
s 6.366495399 _11_ AGT  --- 6 18 cbr 210 [0 0 0 0] ------- [11:0 18:0 32 0] [3] 0 0
r 6.409153667 _5_ AGT  --- 2 15 cbr 230 [5 5 a 0] ------- [15:1 5:0 29 5] [13] 2 0
r 6.469153667 _5_ AGT  --- 2 17 cbr 230 [5 5 a 0] ------- [15:1 5:0 29 5] [14] 2 0
s 6.526838288 _15_ AGT  --- 2 19 cbr 210 [0 0 0 0] ------- [15:1 5:0 32 0] [15] 0 0
s 6.534495399 _11_ AGT  --- 6 20 cbr 210 [0 0 0 0] ------- [11:0 18:0 32 0] [4] 0 0
r 6.589153667 _5_ AGT  --- 2 19 cbr 230 [5 5 a 0] ------- [15:1 5:0 29 5] [15] 2 0
s 6.694838288 _15_ AGT  --- 2 21 cbr 210 [0 0 0 0] ------- [15:1 5:0 32 0] [16] 0 0
s 6.702495399 _11_ AGT  --- 6 22 cbr 210 [0 0 0 0] ------- [11:0 18:0 32 0] [5] 0 0
r 6.769153667 _5_ AGT  --- 2 21 cbr 230 [5 5 a 0] ------- [15:1 5:0 29 5] [16] 2 0
s 6.862838288 _15_ AGT  --- 2 23 cbr 210 [0 0 0 0] ------- [15:1 5:0 32 0] [17] 0 0
s 6.870495399 _11_ AGT  --- 6 24 cbr 210 [0 0 0 0] ------- [11:0 18:0 32 0] [6] 0 0
r 6.949153667 _5_ AGT  --- 2 23 cbr 230 [5 5 a 0] ------- [15:1 5:0 29 5] [17] 2 0
s 7.030838288 _15_ AGT  --- 2 25 cbr 210 [0 0 0 0] ------- [15:1 5:0 32 0] [18] 0 0
s 7.038495399 _11_ AGT  --- 6 26 cbr 210 [0 0 0 0] ------- [11:0 18:0 32 0] [7] 0 0
r 7.129153667 _5_ AGT  --- 2 25 cbr 230 [5 5 a 0] ------- [15:1 5:0 29 5] [18] 2 0
s 7.198838288 _15_ AGT  --- 2 27 cbr 210 [0 0 0 0] ------- [15:1 5:0 32 0] [19] 0 0
s 7.206495399 _11_ AGT  --- 6 28 cbr 210 [0 0 0 0] ------- [11:0 18:0 32 0] [8] 0 0
r 7.249153667 _5_ AGT  --- 2 27 cbr 230 [5 5 a 0] ------- [15:1 5:0 29 5] [19] 2 0
s 7.366838288 _15_ AGT  --- 2 29 cbr 210 [0 0 0 0] ------- [15:1 5:0 32 0] [20] 0 0
s 7.374495399 _11_ AGT  --- 6 30 cbr 210 [0 0 0 0] ------- [11:0 18:0 32 0] [9] 0 0
r 7.489153667 _5_ AGT  --- 2 29 cbr 230 [5 5 a 0] ------- [15:1 5:0 29 5] [20] 2 0
s 7.534838288 _15_ AGT  --- 2 31 cbr 210 [0 0 0 0] ------- [15:1 5:0 32 0] [21] 0 0
s 7.542495399 _11_ AGT  --- 6 32 cbr 210 [0 0 0 0] ------- [11:0 18:0 32 0] [10] 0 0
r 7.609153667 _5_ AGT  --- 2 31 cbr 230 [5 5 a 0] ------- [15:1 5:0 29 5] [21] 2 0
s 7.702838288 _15_ AGT  --- 2 33 cbr 210 [0 0 0 0] ------- [15:1 5:0 32 0] [22] 0 0
s 7.710495399 _11_ AGT  --- 6 34 cbr 210 [0 0 0 0] ------- [11:0 18:0 32 0] [11] 0 0
r 7.783153667 _18_ AGT  --- 6 12 cbr 230 [5 12 d 0] ------- [11:0 18:0 28 18] [0] 3 0
r 7.843153667 _18_ AGT  --- 6 14 cbr 230 [5 12 d 0] ------- [11:0 18:0 28 18] [1] 3 0
s 7.870838288 _15_ AGT  --- 2 35 cbr 210 [0 0 0 0] ------- [15:1 5:0 32 0] [23] 0 0
s 7.878495399 _11_ AGT  --- 6 36 cbr 210 [0 0 0 0] ------- [11:0 18:0 32 0] [12] 0 0
r 7.903153667 _18_ AGT  --- 6 16 cbr 230 [5 12 d 0] ------- [11:0 18:0 28 18] [2] 3 0
r 7.963153667 _18_ AGT  --- 6 18 cbr 230 [5 12 d 0] ------- [11:0 18:0 28 18] [3] 3 0
r 8.023153667 _18_ AGT  --- 6 20 cbr 230 [5 12 d 0] ------- [11:0 18:0 28 18] [4] 3 0
s 8.038838288 _15_ AGT  --- 2 37 cbr 210 [0 0 0 0] ------- [15:1 5:0 32 0] [24] 0 0
s 8.046495399 _11_ AGT  --- 6 38 cbr 210 [0 0 0 0] ------- [11:0 18:0 32 0] [13] 0 0
r 8.083153667 _18_ AGT  --- 6 22 cbr 230 [5 12 d 0] ------- [11:0 18:0 28 18] [5] 3 0
r 8.143153667 _18_ AGT  --- 6 24 cbr 230 [5 12 d 0] ------- [11:0 18:0 28 18] [6] 3 0
r 8.203153667 _18_ AGT  --- 6 26 cbr 230 [5 12 d 0] ------- [11:0 18:0 28 18] [7] 3 0
s 8.206838288 _15_ AGT  --- 2 39 cbr 210 [0 0 0 0] ------- [15:1 5:0 32 0] [25] 0 0
s 8.214495399 _11_ AGT  --- 6 40 cbr 210 [0 0 0 0] ------- [11:0 18:0 32 0] [14] 0 0
r 8.263153667 _18_ AGT  --- 6 34 cbr 230 [5 12 d 0] ------- [11:0 18:0 28 18] [11] 3 0
r 8.323153667 _18_ AGT  --- 6 28 cbr 230 [5 12 d 0] ------- [11:0 18:0 28 18] [8] 3 0
s 8.374838288 _15_ AGT  --- 2 41 cbr 210 [0 0 0 0] ------- [15:1 5:0 32 0] [26] 0 0
s 8.382495399 _11_ AGT  --- 6 42 cbr 210 [0 0 0 0] ------- [11:0 18:0 32 0] [15] 0 0
r 8.383153667 _18_ AGT  --- 6 30 cbr 230 [5 12 d 0] ------- [11:0 18:0 28 18] [9] 3 0
r 8.443153667 _18_ AGT  --- 6 32 cbr 230 [5 12 d 0] ------- [11:0 18:0 28 18] [10] 3 0
r 8.503153667 _18_ AGT  --- 6 36 cbr 230 [5 12 d 0] ------- [11:0 18:0 28 18] [12] 3 0
s 8.542838288 _15_ AGT  --- 2 43 cbr 210 [0 0 0 0] ------- [15:1 5:0 32 0] [27] 0 0
s 8.550495399 _11_ AGT  --- 6 44 cbr 210 [0 0 0 0] ------- [11:0 18:0 32 0] [16] 0 0
r 8.563153667 _18_ AGT  --- 6 38 cbr 230 [5 12 d 0] ------- [11:0 18:0 28 18] [13] 3 0
r 8.623153667 _18_ AGT  --- 6 40 cbr 230 [5 12 d 0] ------- [11:0 18:0 28 18] [14] 3 0
r 8.683153667 _18_ AGT  --- 6 42 cbr 230 [5 12 d 0] ------- [11:0 18:0 28 18] [15] 3 0
s 8.710838288 _15_ AGT  --- 2 45 cbr 210 [0 0 0 0] ------- [15:1 5:0 32 0] [28] 0 0
s 8.718495399 _11_ AGT  --- 6 46 cbr 210 [0 0 0 0] ------- [11:0 18:0 32 0] [17] 0 0
r 8.743153667 _18_ AGT  --- 6 44 cbr 230 [5 12 d 0] ------- [11:0 18:0 28 18] [16] 3 0
r 8.863153667 _18_ AGT  --- 6 46 cbr 230 [5 12 d 0] ------- [11:0 18:0 28 18] [17] 3 0
s 8.878838288 _15_ AGT  --- 2 47 cbr 210 [0 0 0 0] ------- [15:1 5:0 32 0] [29] 0 0
s 8.886495399 _11_ AGT  --- 6 48 cbr 210 [0 0 0 0] ------- [11:0 18:0 32 0] [18] 0 0
r 8.929153667 _5_ AGT  --- 2 47 cbr 230 [5 5 a 0] ------- [15:1 5:0 29 5] [29] 2 0
r 9.043153667 _18_ AGT  --- 6 48 cbr 230 [5 12 d 0] ------- [11:0 18:0 28 18] [18] 3 0
s 9.046838288 _15_ AGT  --- 2 49 cbr 210 [0 0 0 0] ------- [15:1 5:0 32 0] [30] 0 0
s 9.054495399 _11_ AGT  --- 6 50 cbr 210 [0 0 0 0] ------- [11:0 18:0 32 0] [19] 0 0
r 9.163153667 _18_ AGT  --- 6 50 cbr 230 [5 12 d 0] ------- [11:0 18:0 28 18] [19] 3 0
s 9.214838288 _15_ AGT  --- 2 51 cbr 210 [0 0 0 0] ------- [15:1 5:0 32 0] [31] 0 0
s 9.222495399 _11_ AGT  --- 6 52 cbr 210 [0 0 0 0] ------- [11:0 18:0 32 0] [20] 0 0
r 9.343153667 _18_ AGT  --- 6 52 cbr 230 [5 12 d 0] ------- [11:0 18:0 28 18] [20] 3 0
s 9.382838288 _15_ AGT  --- 2 53 cbr 210 [0 0 0 0] ------- [15:1 5:0 32 0] [32] 0 0
s 9.390495399 _11_ AGT  --- 6 54 cbr 210 [0 0 0 0] ------- [11:0 18:0 32 0] [21] 0 0
r 9.523153667 _18_ AGT  --- 6 54 cbr 230 [5 12 d 0] ------- [11:0 18:0 28 18] [21] 3 0
s 9.550838288 _15_ AGT  --- 2 55 cbr 210 [0 0 0 0] ------- [15:1 5:0 32 0] [33] 0 0
s 9.558495399 _11_ AGT  --- 6 56 cbr 210 [0 0 0 0] ------- [11:0 18:0 32 0] [22] 0 0
r 9.703153667 _18_ AGT  --- 6 56 cbr 230 [5 12 d 0] ------- [11:0 18:0 28 18] [22] 3 0
s 9.718838288 _15_ AGT  --- 2 57 cbr 210 [0 0 0 0] ------- [15:1 5:0 32 0] [34] 0 0
s 9.726495399 _11_ AGT  --- 6 58 cbr 210 [0 0 0 0] ------- [11:0 18:0 32 0] [23] 0 0
r 9.769153667 _5_ AGT  --- 2 57 cbr 230 [5 5 a 0] ------- [15:1 5:0 29 5] [34] 2 0
r 9.883153667 _18_ AGT  --- 6 58 cbr 230 [5 12 d 0] ------- [11:0 18:0 28 18] [23] 3 0
s 9.886838288 _15_ AGT  --- 2 59 cbr 210 [0 0 0 0] ------- [15:1 5:0 32 0] [35] 0 0
s 9.894495399 _11_ AGT  --- 6 60 cbr 210 [0 0 0 0] ------- [11:0 18:0 32 0] [24] 0 0
r 10.003153667 _18_ AGT  --- 6 60 cbr 230 [5 12 d 0] ------- [11:0 18:0 28 18] [24] 3 0
s 10.054838288 _15_ AGT  --- 2 61 cbr 210 [0 0 0 0] ------- [15:1 5:0 32 0] [36] 0 0
s 10.062495399 _11_ AGT  --- 6 62 cbr 210 [0 0 0 0] ------- [11:0 18:0 32 0] [25] 0 0
r 10.183153667 _18_ AGT  --- 6 62 cbr 230 [5 12 d 0] ------- [11:0 18:0 28 18] [25] 3 0
s 10.222838288 _15_ AGT  --- 2 63 cbr 210 [0 0 0 0] ------- [15:1 5:0 32 0] [37] 0 0
s 10.230495399 _11_ AGT  --- 6 64 cbr 210 [0 0 0 0] ------- [11:0 18:0 32 0] [26] 0 0
r 10.363153667 _18_ AGT  --- 6 64 cbr 230 [5 12 d 0] ------- [11:0 18:0 28 18] [26] 3 0
s 10.390838288 _15_ AGT  --- 2 65 cbr 210 [0 0 0 0] ------- [15:1 5:0 32 0] [38] 0 0
s 10.398495399 _11_ AGT  --- 6 66 cbr 210 [0 0 0 0] ------- [11:0 18:0 32 0] [27] 0 0
r 10.543153667 _18_ AGT  --- 6 66 cbr 230 [5 12 d 0] ------- [11:0 18:0 28 18] [27] 3 0
s 10.558838288 _15_ AGT  --- 2 67 cbr 210 [0 0 0 0] ------- [15:1 5:0 32 0] [39] 0 0
s 10.566495399 _11_ AGT  --- 6 68 cbr 210 [0 0 0 0] ------- [11:0 18:0 32 0] [28] 0 0
r 10.609153667 _5_ AGT  --- 2 67 cbr 230 [5 5 a 0] ------- [15:1 5:0 29 5] [39] 2 0
r 10.723153667 _18_ AGT  --- 6 68 cbr 230 [5 12 d 0] ------- [11:0 18:0 28 18] [28] 3 0
s 10.726838288 _15_ AGT  --- 2 69 cbr 210 [0 0 0 0] ------- [15:1 5:0 32 0] [40] 0 0
s 10.734495399 _11_ AGT  --- 6 70 cbr 210 [0 0 0 0] ------- [11:0 18:0 32 0] [29] 0 0
r 10.843153667 _18_ AGT  --- 6 70 cbr 230 [5 12 d 0] ------- [11:0 18:0 28 18] [29] 3 0
r 10.849153667 _5_ AGT  --- 2 69 cbr 230 [5 5 a 0] ------- [15:1 5:0 29 5] [40] 2 0
s 10.894838288 _15_ AGT  --- 2 71 cbr 210 [0 0 0 0] ------- [15:1 5:0 32 0] [41] 0 0
s 10.902495399 _11_ AGT  --- 6 72 cbr 210 [0 0 0 0] ------- [11:0 18:0 32 0] [30] 0 0
r 11.023153667 _18_ AGT  --- 6 72 cbr 230 [5 12 d 0] ------- [11:0 18:0 28 18] [30] 3 0
s 11.062838288 _15_ AGT  --- 2 73 cbr 210 [0 0 0 0] ------- [15:1 5:0 32 0] [42] 0 0
s 11.070495399 _11_ AGT  --- 6 74 cbr 210 [0 0 0 0] ------- [11:0 18:0 32 0] [31] 0 0
r 11.203153667 _18_ AGT  --- 6 74 cbr 230 [5 12 d 0] ------- [11:0 18:0 28 18] [31] 3 0
s 11.230838288 _15_ AGT  --- 2 75 cbr 210 [0 0 0 0] ------- [15:1 5:0 32 0] [43] 0 0
s 11.238495399 _11_ AGT  --- 6 76 cbr 210 [0 0 0 0] ------- [11:0 18:0 32 0] [32] 0 0
r 11.383153667 _18_ AGT  --- 6 76 cbr 230 [5 12 d 0] ------- [11:0 18:0 28 18] [32] 3 0
s 11.398838288 _15_ AGT  --- 2 77 cbr 210 [0 0 0 0] ------- [15:1 5:0 32 0] [44] 0 0
s 11.406495399 _11_ AGT  --- 6 78 cbr 210 [0 0 0 0] ------- [11:0 18:0 32 0] [33] 0 0
r 11.449153667 _5_ AGT  --- 2 77 cbr 230 [5 5 a 0] ------- [15:1 5:0 29 5] [44] 2 0
r 11.563153667 _18_ AGT  --- 6 78 cbr 230 [5 12 d 0] ------- [11:0 18:0 28 18] [33] 3 0
s 11.566838288 _15_ AGT  --- 2 79 cbr 210 [0 0 0 0] ------- [15:1 5:0 32 0] [45] 0 0
s 11.574495399 _11_ AGT  --- 6 80 cbr 210 [0 0 0 0] ------- [11:0 18:0 32 0] [34] 0 0
r 11.683153667 _18_ AGT  --- 6 80 cbr 230 [5 12 d 0] ------- [11:0 18:0 28 18] [34] 3 0
s 11.734838288 _15_ AGT  --- 2 81 cbr 210 [0 0 0 0] ------- [15:1 5:0 32 0] [46] 0 0
s 11.742495399 _11_ AGT  --- 6 82 cbr 210 [0 0 0 0] ------- [11:0 18:0 32 0] [35] 0 0
r 11.863153667 _18_ AGT  --- 6 82 cbr 230 [5 12 d 0] ------- [11:0 18:0 28 18] [35] 3 0
s 11.902838288 _15_ AGT  --- 2 83 cbr 210 [0 0 0 0] ------- [15:1 5:0 32 0] [47] 0 0
s 11.910495399 _11_ AGT  --- 6 84 cbr 210 [0 0 0 0] ------- [11:0 18:0 32 0] [36] 0 0
r 12.043153667 _18_ AGT  --- 6 84 cbr 230 [5 12 d 0] ------- [11:0 18:0 28 18] [36] 3 0
s 12.070838288 _15_ AGT  --- 2 85 cbr 210 [0 0 0 0] ------- [15:1 5:0 32 0] [48] 0 0
s 12.078495399 _11_ AGT  --- 6 86 cbr 210 [0 0 0 0] ------- [11:0 18:0 32 0] [37] 0 0
r 12.223153667 _18_ AGT  --- 6 86 cbr 230 [5 12 d 0] ------- [11:0 18:0 28 18] [37] 3 0
s 12.238838288 _15_ AGT  --- 2 87 cbr 210 [0 0 0 0] ------- [15:1 5:0 32 0] [49] 0 0
s 12.246495399 _11_ AGT  --- 6 88 cbr 210 [0 0 0 0] ------- [11:0 18:0 32 0] [38] 0 0
r 12.289153667 _5_ AGT  --- 2 87 cbr 230 [5 5 a 0] ------- [15:1 5:0 29 5] [49] 2 0
r 12.403153667 _18_ AGT  --- 6 88 cbr 230 [5 12 d 0] ------- [11:0 18:0 28 18] [38] 3 0
s 12.406838288 _15_ AGT  --- 2 89 cbr 210 [0 0 0 0] ------- [15:1 5:0 32 0] [50] 0 0
s 12.414495399 _11_ AGT  --- 6 90 cbr 210 [0 0 0 0] ------- [11:0 18:0 32 0] [39] 0 0
r 12.523153667 _18_ AGT  --- 6 90 cbr 230 [5 12 d 0] ------- [11:0 18:0 28 18] [39] 3 0
s 12.574838288 _15_ AGT  --- 2 91 cbr 210 [0 0 0 0] ------- [15:1 5:0 32 0] [51] 0 0
s 12.582495399 _11_ AGT  --- 6 92 cbr 210 [0 0 0 0] ------- [11:0 18:0 32 0] [40] 0 0
r 12.703153667 _18_ AGT  --- 6 92 cbr 230 [5 12 d 0] ------- [11:0 18:0 28 18] [40] 3 0
s 12.742838288 _15_ AGT  --- 2 93 cbr 210 [0 0 0 0] ------- [15:1 5:0 32 0] [52] 0 0
s 12.750495399 _11_ AGT  --- 6 94 cbr 210 [0 0 0 0] ------- [11:0 18:0 32 0] [41] 0 0
r 12.883153667 _18_ AGT  --- 6 94 cbr 230 [5 12 d 0] ------- [11:0 18:0 28 18] [41] 3 0
s 12.910838288 _15_ AGT  --- 2 95 cbr 210 [0 0 0 0] ------- [15:1 5:0 32 0] [53] 0 0
s 12.918495399 _11_ AGT  --- 6 96 cbr 210 [0 0 0 0] ------- [11:0 18:0 32 0] [42] 0 0
r 13.063153667 _18_ AGT  --- 6 96 cbr 230 [5 12 d 0] ------- [11:0 18:0 28 18] [42] 3 0
s 13.078838288 _15_ AGT  --- 2 97 cbr 210 [0 0 0 0] ------- [15:1 5:0 32 0] [54] 0 0
s 13.086495399 _11_ AGT  --- 6 98 cbr 210 [0 0 0 0] ------- [11:0 18:0 32 0] [43] 0 0
r 13.129153667 _5_ AGT  --- 2 97 cbr 230 [5 5 a 0] ------- [15:1 5:0 29 5] [54] 2 0
r 13.243153667 _18_ AGT  --- 6 98 cbr 230 [5 12 d 0] ------- [11:0 18:0 28 18] [43] 3 0
s 13.246838288 _15_ AGT  --- 2 99 cbr 210 [0 0 0 0] ------- [15:1 5:0 32 0] [55] 0 0
s 13.254495399 _11_ AGT  --- 6 100 cbr 210 [0 0 0 0] ------- [11:0 18:0 32 0] [44] 0 0
r 13.363153667 _18_ AGT  --- 6 100 cbr 230 [5 12 d 0] ------- [11:0 18:0 28 18] [44] 3 0
s 13.414838288 _15_ AGT  --- 2 101 cbr 210 [0 0 0 0] ------- [15:1 5:0 32 0] [56] 0 0
s 13.422495399 _11_ AGT  --- 6 102 cbr 210 [0 0 0 0] ------- [11:0 18:0 32 0] [45] 0 0
r 13.543153667 _18_ AGT  --- 6 102 cbr 230 [5 12 d 0] ------- [11:0 18:0 28 18] [45] 3 0
s 13.582838288 _15_ AGT  --- 2 103 cbr 210 [0 0 0 0] ------- [15:1 5:0 32 0] [57] 0 0
s 13.590495399 _11_ AGT  --- 6 104 cbr 210 [0 0 0 0] ------- [11:0 18:0 32 0] [46] 0 0
r 13.723153667 _18_ AGT  --- 6 104 cbr 230 [5 12 d 0] ------- [11:0 18:0 28 18] [46] 3 0
s 13.750838288 _15_ AGT  --- 2 105 cbr 210 [0 0 0 0] ------- [15:1 5:0 32 0] [58] 0 0
s 13.758495399 _11_ AGT  --- 6 106 cbr 210 [0 0 0 0] ------- [11:0 18:0 32 0] [47] 0 0
r 13.903153667 _18_ AGT  --- 6 106 cbr 230 [5 12 d 0] ------- [11:0 18:0 28 18] [47] 3 0
s 13.918838288 _15_ AGT  --- 2 107 cbr 210 [0 0 0 0] ------- [15:1 5:0 32 0] [59] 0 0
s 13.926495399 _11_ AGT  --- 6 108 cbr 210 [0 0 0 0] ------- [11:0 18:0 32 0] [48] 0 0
r 13.969153667 _5_ AGT  --- 2 107 cbr 230 [5 5 a 0] ------- [15:1 5:0 29 5] [59] 2 0
r 14.083153667 _18_ AGT  --- 6 108 cbr 230 [5 12 d 0] ------- [11:0 18:0 28 18] [48] 3 0
s 14.086838288 _15_ AGT  --- 2 109 cbr 210 [0 0 0 0] ------- [15:1 5:0 32 0] [60] 0 0
s 14.094495399 _11_ AGT  --- 6 110 cbr 210 [0 0 0 0] ------- [11:0 18:0 32 0] [49] 0 0
r 14.203153667 _18_ AGT  --- 6 110 cbr 230 [5 12 d 0] ------- [11:0 18:0 28 18] [49] 3 0
s 14.254838288 _15_ AGT  --- 2 111 cbr 210 [0 0 0 0] ------- [15:1 5:0 32 0] [61] 0 0
s 14.262495399 _11_ AGT  --- 6 112 cbr 210 [0 0 0 0] ------- [11:0 18:0 32 0] [50] 0 0
r 14.383153667 _18_ AGT  --- 6 112 cbr 230 [5 12 d 0] ------- [11:0 18:0 28 18] [50] 3 0
s 14.422838288 _15_ AGT  --- 2 113 cbr 210 [0 0 0 0] ------- [15:1 5:0 32 0] [62] 0 0
s 14.430495399 _11_ AGT  --- 6 114 cbr 210 [0 0 0 0] ------- [11:0 18:0 32 0] [51] 0 0
r 14.563153667 _18_ AGT  --- 6 114 cbr 230 [5 12 d 0] ------- [11:0 18:0 28 18] [51] 3 0
s 14.590838288 _15_ AGT  --- 2 115 cbr 210 [0 0 0 0] ------- [15:1 5:0 32 0] [63] 0 0
s 14.598495399 _11_ AGT  --- 6 116 cbr 210 [0 0 0 0] ------- [11:0 18:0 32 0] [52] 0 0
r 14.743153667 _18_ AGT  --- 6 116 cbr 230 [5 12 d 0] ------- [11:0 18:0 28 18] [52] 3 0
s 14.758838288 _15_ AGT  --- 2 117 cbr 210 [0 0 0 0] ------- [15:1 5:0 32 0] [64] 0 0
s 14.766495399 _11_ AGT  --- 6 118 cbr 210 [0 0 0 0] ------- [11:0 18:0 32 0] [53] 0 0
r 14.809153667 _5_ AGT  --- 2 117 cbr 230 [5 5 a 0] ------- [15:1 5:0 29 5] [64] 2 0
r 14.923153667 _18_ AGT  --- 6 118 cbr 230 [5 12 d 0] ------- [11:0 18:0 28 18] [53] 3 0
s 14.926838288 _15_ AGT  --- 2 119 cbr 210 [0 0 0 0] ------- [15:1 5:0 32 0] [65] 0 0
s 14.934495399 _11_ AGT  --- 6 120 cbr 210 [0 0 0 0] ------- [11:0 18:0 32 0] [54] 0 0
r 15.043153667 _18_ AGT  --- 6 120 cbr 230 [5 12 d 0] ------- [11:0 18:0 28 18] [54] 3 0
s 15.094838288 _15_ AGT  --- 2 121 cbr 210 [0 0 0 0] ------- [15:1 5:0 32 0] [66] 0 0
s 15.102495399 _11_ AGT  --- 6 122 cbr 210 [0 0 0 0] ------- [11:0 18:0 32 0] [55] 0 0
r 15.169153667 _5_ AGT  --- 2 121 cbr 230 [5 5 a 0] ------- [15:1 5:0 29 5] [66] 2 0
s 15.262838288 _15_ AGT  --- 2 123 cbr 210 [0 0 0 0] ------- [15:1 5:0 32 0] [67] 0 0
s 15.270495399 _11_ AGT  --- 6 124 cbr 210 [0 0 0 0] ------- [11:0 18:0 32 0] [56] 0 0
r 15.283153667 _18_ AGT  --- 6 122 cbr 230 [5 12 d 0] ------- [11:0 18:0 28 18] [55] 3 0
r 15.403153667 _18_ AGT  --- 6 124 cbr 230 [5 12 d 0] ------- [11:0 18:0 28 18] [56] 3 0
s 15.430838288 _15_ AGT  --- 2 125 cbr 210 [0 0 0 0] ------- [15:1 5:0 32 0] [68] 0 0
s 15.438495399 _11_ AGT  --- 6 126 cbr 210 [0 0 0 0] ------- [11:0 18:0 32 0] [57] 0 0
r 15.583153667 _18_ AGT  --- 6 126 cbr 230 [5 12 d 0] ------- [11:0 18:0 28 18] [57] 3 0
s 15.598838288 _15_ AGT  --- 2 127 cbr 210 [0 0 0 0] ------- [15:1 5:0 32 0] [69] 0 0
s 15.606495399 _11_ AGT  --- 6 128 cbr 210 [0 0 0 0] ------- [11:0 18:0 32 0] [58] 0 0
r 15.649153667 _5_ AGT  --- 2 127 cbr 230 [5 5 a 0] ------- [15:1 5:0 29 5] [69] 2 0
r 15.763153667 _18_ AGT  --- 6 128 cbr 230 [5 12 d 0] ------- [11:0 18:0 28 18] [58] 3 0
s 15.766838288 _15_ AGT  --- 2 129 cbr 210 [0 0 0 0] ------- [15:1 5:0 32 0] [70] 0 0
s 15.774495399 _11_ AGT  --- 6 130 cbr 210 [0 0 0 0] ------- [11:0 18:0 32 0] [59] 0 0
r 15.883153667 _18_ AGT  --- 6 130 cbr 230 [5 12 d 0] ------- [11:0 18:0 28 18] [59] 3 0
s 15.934838288 _15_ AGT  --- 2 131 cbr 210 [0 0 0 0] ------- [15:1 5:0 32 0] [71] 0 0
s 15.942495399 _11_ AGT  --- 6 132 cbr 210 [0 0 0 0] ------- [11:0 18:0 32 0] [60] 0 0
r 16.063153667 _18_ AGT  --- 6 132 cbr 230 [5 12 d 0] ------- [11:0 18:0 28 18] [60] 3 0
s 16.102838288 _15_ AGT  --- 2 133 cbr 210 [0 0 0 0] ------- [15:1 5:0 32 0] [72] 0 0
s 16.110495399 _11_ AGT  --- 6 134 cbr 210 [0 0 0 0] ------- [11:0 18:0 32 0] [61] 0 0
r 16.243153667 _18_ AGT  --- 6 134 cbr 230 [5 12 d 0] ------- [11:0 18:0 28 18] [61] 3 0
s 16.270838288 _15_ AGT  --- 2 135 cbr 210 [0 0 0 0] ------- [15:1 5:0 32 0] [73] 0 0
s 16.278495399 _11_ AGT  --- 6 136 cbr 210 [0 0 0 0] ------- [11:0 18:0 32 0] [62] 0 0
s 16.400059553 _1_ AGT  --- 5 137 cbr 210 [0 0 0 0] ------- [1:0 10:1 32 0] [0] 0 0
r 16.423153667 _18_ AGT  --- 6 136 cbr 230 [5 12 d 0] ------- [11:0 18:0 28 18] [62] 3 0
s 16.438838288 _15_ AGT  --- 2 138 cbr 210 [0 0 0 0] ------- [15:1 5:0 32 0] [74] 0 0
s 16.446495399 _11_ AGT  --- 6 139 cbr 210 [0 0 0 0] ------- [11:0 18:0 32 0] [63] 0 0
r 16.489153667 _5_ AGT  --- 2 138 cbr 230 [5 5 a 0] ------- [15:1 5:0 29 5] [74] 2 0
s 16.568059553 _1_ AGT  --- 5 140 cbr 210 [0 0 0 0] ------- [1:0 10:1 32 0] [1] 0 0
r 16.603153667 _18_ AGT  --- 6 139 cbr 230 [5 12 d 0] ------- [11:0 18:0 28 18] [63] 3 0
s 16.606838288 _15_ AGT  --- 2 141 cbr 210 [0 0 0 0] ------- [15:1 5:0 32 0] [75] 0 0
s 16.614495399 _11_ AGT  --- 6 142 cbr 210 [0 0 0 0] ------- [11:0 18:0 32 0] [64] 0 0
r 16.723153667 _18_ AGT  --- 6 142 cbr 230 [5 12 d 0] ------- [11:0 18:0 28 18] [64] 3 0
s 16.736059553 _1_ AGT  --- 5 143 cbr 210 [0 0 0 0] ------- [1:0 10:1 32 0] [2] 0 0
s 16.774838288 _15_ AGT  --- 2 144 cbr 210 [0 0 0 0] ------- [15:1 5:0 32 0] [76] 0 0
s 16.782495399 _11_ AGT  --- 6 145 cbr 210 [0 0 0 0] ------- [11:0 18:0 32 0] [65] 0 0
r 16.903153667 _18_ AGT  --- 6 145 cbr 230 [5 12 d 0] ------- [11:0 18:0 28 18] [65] 3 0
s 16.904059553 _1_ AGT  --- 5 146 cbr 210 [0 0 0 0] ------- [1:0 10:1 32 0] [3] 0 0
s 16.942838288 _15_ AGT  --- 2 147 cbr 210 [0 0 0 0] ------- [15:1 5:0 32 0] [77] 0 0
s 16.950495399 _11_ AGT  --- 6 148 cbr 210 [0 0 0 0] ------- [11:0 18:0 32 0] [66] 0 0
s 17.072059553 _1_ AGT  --- 5 149 cbr 210 [0 0 0 0] ------- [1:0 10:1 32 0] [4] 0 0
r 17.083153667 _18_ AGT  --- 6 148 cbr 230 [5 12 d 0] ------- [11:0 18:0 28 18] [66] 3 0
s 17.110838288 _15_ AGT  --- 2 150 cbr 210 [0 0 0 0] ------- [15:1 5:0 32 0] [78] 0 0
s 17.118495399 _11_ AGT  --- 6 151 cbr 210 [0 0 0 0] ------- [11:0 18:0 32 0] [67] 0 0
s 17.240059553 _1_ AGT  --- 5 152 cbr 210 [0 0 0 0] ------- [1:0 10:1 32 0] [5] 0 0
r 17.263153667 _18_ AGT  --- 6 151 cbr 230 [5 12 d 0] ------- [11:0 18:0 28 18] [67] 3 0
s 17.278838288 _15_ AGT  --- 2 153 cbr 210 [0 0 0 0] ------- [15:1 5:0 32 0] [79] 0 0
s 17.286495399 _11_ AGT  --- 6 154 cbr 210 [0 0 0 0] ------- [11:0 18:0 32 0] [68] 0 0
r 17.329153667 _5_ AGT  --- 2 153 cbr 230 [5 5 a 0] ------- [15:1 5:0 29 5] [79] 2 0
s 17.408059553 _1_ AGT  --- 5 155 cbr 210 [0 0 0 0] ------- [1:0 10:1 32 0] [6] 0 0
r 17.443153667 _18_ AGT  --- 6 154 cbr 230 [5 12 d 0] ------- [11:0 18:0 28 18] [68] 3 0
s 17.446838288 _15_ AGT  --- 2 156 cbr 210 [0 0 0 0] ------- [15:1 5:0 32 0] [80] 0 0
s 17.454495399 _11_ AGT  --- 6 157 cbr 210 [0 0 0 0] ------- [11:0 18:0 32 0] [69] 0 0
r 17.509153667 _5_ AGT  --- 2 156 cbr 230 [5 5 a 0] ------- [15:1 5:0 29 5] [80] 2 0
s 17.576059553 _1_ AGT  --- 5 158 cbr 210 [0 0 0 0] ------- [1:0 10:1 32 0] [7] 0 0
s 17.614838288 _15_ AGT  --- 2 159 cbr 210 [0 0 0 0] ------- [15:1 5:0 32 0] [81] 0 0
s 17.622495399 _11_ AGT  --- 6 160 cbr 210 [0 0 0 0] ------- [11:0 18:0 32 0] [70] 0 0
r 17.623153667 _18_ AGT  --- 6 157 cbr 230 [5 12 d 0] ------- [11:0 18:0 28 18] [69] 3 0
r 17.743153667 _18_ AGT  --- 6 160 cbr 230 [5 12 d 0] ------- [11:0 18:0 28 18] [70] 3 0
s 17.744059553 _1_ AGT  --- 5 161 cbr 210 [0 0 0 0] ------- [1:0 10:1 32 0] [8] 0 0
s 17.782838288 _15_ AGT  --- 2 162 cbr 210 [0 0 0 0] ------- [15:1 5:0 32 0] [82] 0 0
s 17.790495399 _11_ AGT  --- 6 163 cbr 210 [0 0 0 0] ------- [11:0 18:0 32 0] [71] 0 0
s 17.912059553 _1_ AGT  --- 5 164 cbr 210 [0 0 0 0] ------- [1:0 10:1 32 0] [9] 0 0
r 17.923153667 _18_ AGT  --- 6 163 cbr 230 [5 12 d 0] ------- [11:0 18:0 28 18] [71] 3 0
s 17.950838288 _15_ AGT  --- 2 165 cbr 210 [0 0 0 0] ------- [15:1 5:0 32 0] [83] 0 0
s 17.958495399 _11_ AGT  --- 6 166 cbr 210 [0 0 0 0] ------- [11:0 18:0 32 0] [72] 0 0
s 18.080059553 _1_ AGT  --- 5 167 cbr 210 [0 0 0 0] ------- [1:0 10:1 32 0] [10] 0 0
r 18.103153667 _18_ AGT  --- 6 166 cbr 230 [5 12 d 0] ------- [11:0 18:0 28 18] [72] 3 0
s 18.118838288 _15_ AGT  --- 2 168 cbr 210 [0 0 0 0] ------- [15:1 5:0 32 0] [84] 0 0
s 18.126495399 _11_ AGT  --- 6 169 cbr 210 [0 0 0 0] ------- [11:0 18:0 32 0] [73] 0 0
r 18.169153667 _5_ AGT  --- 2 168 cbr 230 [5 5 a 0] ------- [15:1 5:0 29 5] [84] 2 0
r 18.175153667 _10_ AGT  --- 5 137 cbr 230 [5 a 5 0] ------- [1:0 10:1 28 10] [0] 3 0
r 18.235153667 _10_ AGT  --- 5 167 cbr 230 [5 a 5 0] ------- [1:0 10:1 28 10] [10] 3 0
s 18.248059553 _1_ AGT  --- 5 170 cbr 210 [0 0 0 0] ------- [1:0 10:1 32 0] [11] 0 0
r 18.283153667 _18_ AGT  --- 6 169 cbr 230 [5 12 d 0] ------- [11:0 18:0 28 18] [73] 3 0
s 18.286838288 _15_ AGT  --- 2 171 cbr 210 [0 0 0 0] ------- [15:1 5:0 32 0] [85] 0 0
s 18.294495399 _11_ AGT  --- 6 172 cbr 210 [0 0 0 0] ------- [11:0 18:0 32 0] [74] 0 0
r 18.295153667 _10_ AGT  --- 5 140 cbr 230 [5 a 5 0] ------- [1:0 10:1 28 10] [1] 3 0
r 18.355153667 _10_ AGT  --- 5 143 cbr 230 [5 a 5 0] ------- [1:0 10:1 28 10] [2] 3 0
r 18.403153667 _18_ AGT  --- 6 172 cbr 230 [5 12 d 0] ------- [11:0 18:0 28 18] [74] 3 0
r 18.415153667 _10_ AGT  --- 5 146 cbr 230 [5 a 5 0] ------- [1:0 10:1 28 10] [3] 3 0
s 18.416059553 _1_ AGT  --- 5 173 cbr 210 [0 0 0 0] ------- [1:0 10:1 32 0] [12] 0 0
s 18.454838288 _15_ AGT  --- 2 174 cbr 210 [0 0 0 0] ------- [15:1 5:0 32 0] [86] 0 0
s 18.462495399 _11_ AGT  --- 6 175 cbr 210 [0 0 0 0] ------- [11:0 18:0 32 0] [75] 0 0
r 18.535153667 _10_ AGT  --- 5 149 cbr 230 [5 a 5 0] ------- [1:0 10:1 28 10] [4] 3 0
r 18.583153667 _18_ AGT  --- 6 175 cbr 230 [5 12 d 0] ------- [11:0 18:0 28 18] [75] 3 0
s 18.584059553 _1_ AGT  --- 5 176 cbr 210 [0 0 0 0] ------- [1:0 10:1 32 0] [13] 0 0
r 18.595153667 _10_ AGT  --- 5 152 cbr 230 [5 a 5 0] ------- [1:0 10:1 28 10] [5] 3 0
s 18.622838288 _15_ AGT  --- 2 177 cbr 210 [0 0 0 0] ------- [15:1 5:0 32 0] [87] 0 0
s 18.630495399 _11_ AGT  --- 6 178 cbr 210 [0 0 0 0] ------- [11:0 18:0 32 0] [76] 0 0
r 18.655153667 _10_ AGT  --- 5 155 cbr 230 [5 a 5 0] ------- [1:0 10:1 28 10] [6] 3 0
r 18.715153667 _10_ AGT  --- 5 158 cbr 230 [5 a 5 0] ------- [1:0 10:1 28 10] [7] 3 0
s 18.752059553 _1_ AGT  --- 5 179 cbr 210 [0 0 0 0] ------- [1:0 10:1 32 0] [14] 0 0
r 18.763153667 _18_ AGT  --- 6 178 cbr 230 [5 12 d 0] ------- [11:0 18:0 28 18] [76] 3 0
r 18.775153667 _10_ AGT  --- 5 161 cbr 230 [5 a 5 0] ------- [1:0 10:1 28 10] [8] 3 0
s 18.790838288 _15_ AGT  --- 2 180 cbr 210 [0 0 0 0] ------- [15:1 5:0 32 0] [88] 0 0
s 18.798495399 _11_ AGT  --- 6 181 cbr 210 [0 0 0 0] ------- [11:0 18:0 32 0] [77] 0 0
r 18.835153667 _10_ AGT  --- 5 164 cbr 230 [5 a 5 0] ------- [1:0 10:1 28 10] [9] 3 0
r 18.895153667 _10_ AGT  --- 5 170 cbr 230 [5 a 5 0] ------- [1:0 10:1 28 10] [11] 3 0
s 18.920059553 _1_ AGT  --- 5 182 cbr 210 [0 0 0 0] ------- [1:0 10:1 32 0] [15] 0 0
r 18.943153667 _18_ AGT  --- 6 181 cbr 230 [5 12 d 0] ------- [11:0 18:0 28 18] [77] 3 0
r 18.955153667 _10_ AGT  --- 5 173 cbr 230 [5 a 5 0] ------- [1:0 10:1 28 10] [12] 3 0
s 18.958838288 _15_ AGT  --- 2 183 cbr 210 [0 0 0 0] ------- [15:1 5:0 32 0] [89] 0 0
s 18.966495399 _11_ AGT  --- 6 184 cbr 210 [0 0 0 0] ------- [11:0 18:0 32 0] [78] 0 0
r 19.009153667 _5_ AGT  --- 2 183 cbr 230 [5 5 a 0] ------- [15:1 5:0 29 5] [89] 2 0
r 19.015153667 _10_ AGT  --- 5 176 cbr 230 [5 a 5 0] ------- [1:0 10:1 28 10] [13] 3 0
r 19.075153667 _10_ AGT  --- 5 179 cbr 230 [5 a 5 0] ------- [1:0 10:1 28 10] [14] 3 0
s 19.088059553 _1_ AGT  --- 5 185 cbr 210 [0 0 0 0] ------- [1:0 10:1 32 0] [16] 0 0
r 19.123153667 _18_ AGT  --- 6 184 cbr 230 [5 12 d 0] ------- [11:0 18:0 28 18] [78] 3 0
s 19.126838288 _15_ AGT  --- 2 186 cbr 210 [0 0 0 0] ------- [15:1 5:0 32 0] [90] 0 0
s 19.134495399 _11_ AGT  --- 6 187 cbr 210 [0 0 0 0] ------- [11:0 18:0 32 0] [79] 0 0
r 19.135153667 _10_ AGT  --- 5 182 cbr 230 [5 a 5 0] ------- [1:0 10:1 28 10] [15] 3 0
r 19.195153667 _10_ AGT  --- 5 185 cbr 230 [5 a 5 0] ------- [1:0 10:1 28 10] [16] 3 0
r 19.243153667 _18_ AGT  --- 6 187 cbr 230 [5 12 d 0] ------- [11:0 18:0 28 18] [79] 3 0
s 19.256059553 _1_ AGT  --- 5 188 cbr 210 [0 0 0 0] ------- [1:0 10:1 32 0] [17] 0 0
s 19.294838288 _15_ AGT  --- 2 189 cbr 210 [0 0 0 0] ------- [15:1 5:0 32 0] [91] 0 0
s 19.302495399 _11_ AGT  --- 6 190 cbr 210 [0 0 0 0] ------- [11:0 18:0 32 0] [80] 0 0
r 19.375153667 _10_ AGT  --- 5 188 cbr 230 [5 a 5 0] ------- [1:0 10:1 28 10] [17] 3 0
r 19.423153667 _18_ AGT  --- 6 190 cbr 230 [5 12 d 0] ------- [11:0 18:0 28 18] [80] 3 0
s 19.424059553 _1_ AGT  --- 5 191 cbr 210 [0 0 0 0] ------- [1:0 10:1 32 0] [18] 0 0
s 19.462838288 _15_ AGT  --- 2 192 cbr 210 [0 0 0 0] ------- [15:1 5:0 32 0] [92] 0 0
s 19.470495399 _11_ AGT  --- 6 193 cbr 210 [0 0 0 0] ------- [11:0 18:0 32 0] [81] 0 0
r 19.495153667 _10_ AGT  --- 5 191 cbr 230 [5 a 5 0] ------- [1:0 10:1 28 10] [18] 3 0
s 19.592059553 _1_ AGT  --- 5 194 cbr 210 [0 0 0 0] ------- [1:0 10:1 32 0] [19] 0 0
r 19.603153667 _18_ AGT  --- 6 193 cbr 230 [5 12 d 0] ------- [11:0 18:0 28 18] [81] 3 0
s 19.630838288 _15_ AGT  --- 2 195 cbr 210 [0 0 0 0] ------- [15:1 5:0 32 0] [93] 0 0
s 19.638495399 _11_ AGT  --- 6 196 cbr 210 [0 0 0 0] ------- [11:0 18:0 32 0] [82] 0 0
r 19.675153667 _10_ AGT  --- 5 194 cbr 230 [5 a 5 0] ------- [1:0 10:1 28 10] [19] 3 0
s 19.760059553 _1_ AGT  --- 5 197 cbr 210 [0 0 0 0] ------- [1:0 10:1 32 0] [20] 0 0
r 19.783153667 _18_ AGT  --- 6 196 cbr 230 [5 12 d 0] ------- [11:0 18:0 28 18] [82] 3 0
s 19.798838288 _15_ AGT  --- 2 198 cbr 210 [0 0 0 0] ------- [15:1 5:0 32 0] [94] 0 0
s 19.806495399 _11_ AGT  --- 6 199 cbr 210 [0 0 0 0] ------- [11:0 18:0 32 0] [83] 0 0
r 19.849153667 _5_ AGT  --- 2 198 cbr 230 [5 5 a 0] ------- [15:1 5:0 29 5] [94] 2 0
r 19.855153667 _10_ AGT  --- 5 197 cbr 230 [5 a 5 0] ------- [1:0 10:1 28 10] [20] 3 0
s 19.928059553 _1_ AGT  --- 5 200 cbr 210 [0 0 0 0] ------- [1:0 10:1 32 0] [21] 0 0
r 19.963153667 _18_ AGT  --- 6 199 cbr 230 [5 12 d 0] ------- [11:0 18:0 28 18] [83] 3 0
s 19.966838288 _15_ AGT  --- 2 201 cbr 210 [0 0 0 0] ------- [15:1 5:0 32 0] [95] 0 0
s 19.974495399 _11_ AGT  --- 6 202 cbr 210 [0 0 0 0] ------- [11:0 18:0 32 0] [84] 0 0
r 20.035153667 _10_ AGT  --- 5 200 cbr 230 [5 a 5 0] ------- [1:0 10:1 28 10] [21] 3 0
r 20.083153667 _18_ AGT  --- 6 202 cbr 230 [5 12 d 0] ------- [11:0 18:0 28 18] [84] 3 0