s 0.856939657 _7_ AGT  --- 4 0 cbr 210 [0 0 0 0] ------- [7:0 5:2 32 0] [0] 0 0
s 0.868139657 _7_ AGT  --- 4 1 cbr 210 [0 0 0 0] ------- [7:0 5:2 32 0] [1] 0 0
s 0.879339657 _7_ AGT  --- 4 2 cbr 210 [0 0 0 0] ------- [7:0 5:2 32 0] [2] 0 0
s 0.890539657 _7_ AGT  --- 4 3 cbr 210 [0 0 0 0] ------- [7:0 5:2 32 0] [3] 0 0
s 0.901739657 _7_ AGT  --- 4 4 cbr 210 [0 0 0 0] ------- [7:0 5:2 32 0] [4] 0 0
s 0.912939657 _7_ AGT  --- 4 5 cbr 210 [0 0 0 0] ------- [7:0 5:2 32 0] [5] 0 0
s 0.924139657 _7_ AGT  --- 4 6 cbr 210 [0 0 0 0] ------- [7:0 5:2 32 0] [6] 0 0
s 0.935339657 _7_ AGT  --- 4 7 cbr 210 [0 0 0 0] ------- [7:0 5:2 32 0] [7] 0 0
s 0.946539657 _7_ AGT  --- 4 8 cbr 210 [0 0 0 0] ------- [7:0 5:2 32 0] [8] 0 0
s 0.957739657 _7_ AGT  --- 4 9 cbr 210 [0 0 0 0] ------- [7:0 5:2 32 0] [9] 0 0
s 0.968939657 _7_ AGT  --- 4 10 cbr 210 [0 0 0 0] ------- [7:0 5:2 32 0] [10] 0 0
s 0.980139657 _7_ AGT  --- 4 11 cbr 210 [0 0 0 0] ------- [7:0 5:2 32 0] [11] 0 0
s 0.991339657 _7_ AGT  --- 4 12 cbr 210 [0 0 0 0] ------- [7:0 5:2 32 0] [12] 0 0
s 1.002539657 _7_ AGT  --- 4 13 cbr 210 [0 0 0 0] ------- [7:0 5:2 32 0] [13] 0 0
s 1.013739657 _7_ AGT  --- 4 14 cbr 210 [0 0 0 0] ------- [7:0 5:2 32 0] [14] 0 0
s 1.024939657 _7_ AGT  --- 4 15 cbr 210 [0 0 0 0] ------- [7:0 5:2 32 0] [15] 0 0
s 1.036139657 _7_ AGT  --- 4 16 cbr 210 [0 0 0 0] ------- [7:0 5:2 32 0] [16] 0 0
s 1.047339657 _7_ AGT  --- 4 17 cbr 210 [0 0 0 0] ------- [7:0 5:2 32 0] [17] 0 0
s 1.058539657 _7_ AGT  --- 4 18 cbr 210 [0 0 0 0] ------- [7:0 5:2 32 0] [18] 0 0
s 1.069739657 _7_ AGT  --- 4 19 cbr 210 [0 0 0 0] ------- [7:0 5:2 32 0] [19] 0 0
s 1.080939657 _7_ AGT  --- 4 20 cbr 210 [0 0 0 0] ------- [7:0 5:2 32 0] [20] 0 0
s 1.092139657 _7_ AGT  --- 4 21 cbr 210 [0 0 0 0] ------- [7:0 5:2 32 0] [21] 0 0
s 1.103339657 _7_ AGT  --- 4 22 cbr 210 [0 0 0 0] ------- [7:0 5:2 32 0] [22] 0 0
s 1.114539657 _7_ AGT  --- 4 23 cbr 210 [0 0 0 0] ------- [7:0 5:2 32 0] [23] 0 0
s 1.125739657 _7_ AGT  --- 4 24 cbr 210 [0 0 0 0] ------- [7:0 5:2 32 0] [24] 0 0
s 1.136939657 _7_ AGT  --- 4 25 cbr 210 [0 0 0 0] ------- [7:0 5:2 32 0] [25] 0 0
s 1.148139657 _7_ AGT  --- 4 26 cbr 210 [0 0 0 0] ------- [7:0 5:2 32 0] [26] 0 0
s 1.159339657 _7_ AGT  --- 4 27 cbr 210 [0 0 0 0] ------- [7:0 5:2 32 0] [27] 0 0
s 1.170539657 _7_ AGT  --- 4 28 cbr 210 [0 0 0 0] ------- [7:0 5:2 32 0] [28] 0 0
s 1.181739657 _7_ AGT  --- 4 29 cbr 210 [0 0 0 0] ------- [7:0 5:2 32 0] [29] 0 0
s 1.192939657 _7_ AGT  --- 4 30 cbr 210 [0 0 0 0] ------- [7:0 5:2 32 0] [30] 0 0
s 1.204139657 _7_ AGT  --- 4 31 cbr 210 [0 0 0 0] ------- [7:0 5:2 32 0] [31] 0 0
s 1.215339657 _7_ AGT  --- 4 32 cbr 210 [0 0 0 0] ------- [7:0 5:2 32 0] [32] 0 0
s 1.226539657 _7_ AGT  --- 4 33 cbr 210 [0 0 0 0] ------- [7:0 5:2 32 0] [33] 0 0
s 1.237739657 _7_ AGT  --- 4 34 cbr 210 [0 0 0 0] ------- [7:0 5:2 32 0] [34] 0 0
s 1.248939657 _7_ AGT  --- 4 35 cbr 210 [0 0 0 0] ------- [7:0 5:2 32 0] [35] 0 0
s 1.260139657 _7_ AGT  --- 4 36 cbr 210 [0 0 0 0] ------- [7:0 5:2 32 0] [36] 0 0
s 1.271339657 _7_ AGT  --- 4 37 cbr 210 [0 0 0 0] ------- [7:0 5:2 32 0] [37] 0 0
s 1.282539657 _7_ AGT  --- 4 38 cbr 210 [0 0 0 0] ------- [7:0 5:2 32 0] [38] 0 0
s 1.293739657 _7_ AGT  --- 4 39 cbr 210 [0 0 0 0] ------- [7:0 5:2 32 0] [39] 0 0
s 1.304939657 _7_ AGT  --- 4 40 cbr 210 [0 0 0 0] ------- [7:0 5:2 32 0] [40] 0 0
s 1.316139657 _7_ AGT  --- 4 41 cbr 210 [0 0 0 0] ------- [7:0 5:2 32 0] [41] 0 0
s 1.327339657 _7_ AGT  --- 4 42 cbr 210 [0 0 0 0] ------- [7:0 5:2 32 0] [42] 0 0
s 1.338539657 _7_ AGT  --- 4 43 cbr 210 [0 0 0 0] ------- [7:0 5:2 32 0] [43] 0 0
s 1.349739657 _7_ AGT  --- 4 44 cbr 210 [0 0 0 0] ------- [7:0 5:2 32 0] [44] 0 0
s 1.360939657 _7_ AGT  --- 4 45 cbr 210 [0 0 0 0] ------- [7:0 5:2 32 0] [45] 0 0
s 1.372139657 _7_ AGT  --- 4 46 cbr 210 [0 0 0 0] ------- [7:0 5:2 32 0] [46] 0 0
s 1.383339657 _7_ AGT  --- 4 47 cbr 210 [0 0 0 0] ------- [7:0 5:2 32 0] [47] 0 0
s 1.394539657 _7_ AGT  --- 4 48 cbr 210 [0 0 0 0] ------- [7:0 5:2 32 0] [48] 0 0
s 1.405739657 _7_ AGT  --- 4 49 cbr 210 [0 0 0 0] ------- [7:0 5:2 32 0] [49] 0 0
s 1.416939657 _7_ AGT  --- 4 50 cbr 210 [0 0 0 0] ------- [7:0 5:2 32 0] [50] 0 0
s 1.428139657 _7_ AGT  --- 4 51 cbr 210 [0 0 0 0] ------- [7:0 5:2 32 0] [51] 0 0
s 1.439339657 _7_ AGT  --- 4 52 cbr 210 [0 0 0 0] ------- [7:0 5:2 32 0] [52] 0 0
s 1.450539657 _7_ AGT  --- 4 53 cbr 210 [0 0 0 0] ------- [7:0 5:2 32 0] [53] 0 0
s 1.461739657 _7_ AGT  --- 4 54 cbr 210 [0 0 0 0] ------- [7:0 5:2 32 0] [54] 0 0
s 1.472939657 _7_ AGT  --- 4 55 cbr 210 [0 0 0 0] ------- [7:0 5:2 32 0] [55] 0 0
s 1.484139657 _7_ AGT  --- 4 56 cbr 210 [0 0 0 0] ------- [7:0 5:2 32 0] [56] 0 0
s 1.495339657 _7_ AGT  --- 4 57 cbr 210 [0 0 0 0] ------- [7:0 5:2 32 0] [57] 0 0
s 1.506539657 _7_ AGT  --- 4 58 cbr 210 [0 0 0 0] ------- [7:0 5:2 32 0] [58] 0 0
s 1.517739657 _7_ AGT  --- 4 59 cbr 210 [0 0 0 0] ------- [7:0 5:2 32 0] [59] 0 0
s 1.528939657 _7_ AGT  --- 4 60 cbr 210 [0 0 0 0] ------- [7:0 5:2 32 0] [60] 0 0
s 1.540139657 _7_ AGT  --- 4 61 cbr 210 [0 0 0 0] ------- [7:0 5:2 32 0] [61] 0 0
s 1.551339657 _7_ AGT  --- 4 62 cbr 210 [0 0 0 0] ------- [7:0 5:2 32 0] [62] 0 0
s 1.562539657 _7_ AGT  --- 4 63 cbr 210 [0 0 0 0] ------- [7:0 5:2 32 0] [63] 0 0
s 1.573739657 _7_ AGT  --- 4 64 cbr 210 [0 0 0 0] ------- [7:0 5:2 32 0] [64] 0 0
D 1.573739657 _7_ RTR  IFQ 4 0 cbr 230 [0 0 0 0] ------- [7:0 5:2 30 0] [0] 0 0
s 1.584939657 _7_ AGT  --- 4 65 cbr 210 [0 0 0 0] ------- [7:0 5:2 32 0] [65] 0 0
D 1.584939657 _7_ RTR  IFQ 4 1 cbr 230 [0 0 0 0] ------- [7:0 5:2 30 0] [1] 0 0
s 1.596139657 _7_ AGT  --- 4 66 cbr 210 [0 0 0 0] ------- [7:0 5:2 32 0] [66] 0 0
D 1.596139657 _7_ RTR  IFQ 4 2 cbr 230 [0 0 0 0] ------- [7:0 5:2 30 0] [2] 0 0
s 1.607339657 _7_ AGT  --- 4 67 cbr 210 [0 0 0 0] ------- [7:0 5:2 32 0] [67] 0 0
D 1.607339657 _7_ RTR  IFQ 4 3 cbr 230 [0 0 0 0] ------- [7:0 5:2 30 0] [3] 0 0
s 1.618539657 _7_ AGT  --- 4 68 cbr 210 [0 0 0 0] ------- [7:0 5:2 32 0] [68] 0 0
D 1.618539657 _7_ RTR  IFQ 4 4 cbr 230 [0 0 0 0] ------- [7:0 5:2 30 0] [4] 0 0
s 1.629739657 _7_ AGT  --- 4 69 cbr 210 [0 0 0 0] ------- [7:0 5:2 32 0] [69] 0 0
D 1.629739657 _7_ RTR  IFQ 4 5 cbr 230 [0 0 0 0] ------- [7:0 5:2 30 0] [5] 0 0
s 1.640939657 _7_ AGT  --- 4 70 cbr 210 [0 0 0 0] ------- [7:0 5:2 32 0] [70] 0 0
D 1.640939657 _7_ RTR  IFQ 4 6 cbr 230 [0 0 0 0] ------- [7:0 5:2 30 0] [6] 0 0
s 1.652139657 _7_ AGT  --- 4 71 cbr 210 [0 0 0 0] ------- [7:0 5:2 32 0] [71] 0 0
D 1.652139657 _7_ RTR  IFQ 4 7 cbr 230 [0 0 0 0] ------- [7:0 5:2 30 0] [7] 0 0
s 1.663339657 _7_ AGT  --- 4 72 cbr 210 [0 0 0 0] ------- [7:0 5:2 32 0] [72] 0 0
D 1.663339657 _7_ RTR  IFQ 4 8 cbr 230 [0 0 0 0] ------- [7:0 5:2 30 0] [8] 0 0
s 1.674539657 _7_ AGT  --- 4 73 cbr 210 [0 0 0 0] ------- [7:0 5:2 32 0] [73] 0 0
D 1.674539657 _7_ RTR  IFQ 4 9 cbr 230 [0 0 0 0] ------- [7:0 5:2 30 0] [9] 0 0
s 1.685739657 _7_ AGT  --- 4 74 cbr 210 [0 0 0 0] ------- [7:0 5:2 32 0] [74] 0 0
D 1.685739657 _7_ RTR  IFQ 4 10 cbr 230 [0 0 0 0] ------- [7:0 5:2 30 0] [10] 0 0
s 1.696939657 _7_ AGT  --- 4 75 cbr 210 [0 0 0 0] ------- [7:0 5:2 32 0] [75] 0 0
D 1.696939657 _7_ RTR  IFQ 4 11 cbr 230 [0 0 0 0] ------- [7:0 5:2 30 0] [11] 0 0
s 1.708139657 _7_ AGT  --- 4 76 cbr 210 [0 0 0 0] ------- [7:0 5:2 32 0] [76] 0 0
D 1.708139657 _7_ RTR  IFQ 4 12 cbr 230 [0 0 0 0] ------- [7:0 5:2 30 0] [12] 0 0
s 1.719339657 _7_ AGT  --- 4 77 cbr 210 [0 0 0 0] ------- [7:0 5:2 32 0] [77] 0 0
D 1.719339657 _7_ RTR  IFQ 4 13 cbr 230 [0 0 0 0] ------- [7:0 5:2 30 0] [13] 0 0
s 1.730539657 _7_ AGT  --- 4 78 cbr 210 [0 0 0 0] ------- [7:0 5:2 32 0] [78] 0 0
D 1.730539657 _7_ RTR  IFQ 4 14 cbr 230 [0 0 0 0] ------- [7:0 5:2 30 0] [14] 0 0
s 1.741739657 _7_ AGT  --- 4 79 cbr 210 [0 0 0 0] ------- [7:0 5:2 32 0] [79] 0 0
D 1.741739657 _7_ RTR  IFQ 4 15 cbr 230 [0 0 0 0] ------- [7:0 5:2 30 0] [15] 0 0
s 1.752939657 _7_ AGT  --- 4 80 cbr 210 [0 0 0 0] ------- [7:0 5:2 32 0] [80] 0 0
D 1.752939657 _7_ RTR  IFQ 4 16 cbr 230 [0 0 0 0] ------- [7:0 5:2 30 0] [16] 0 0
s 1.764139657 _7_ AGT  --- 4 81 cbr 210 [0 0 0 0] ------- [7:0 5:2 32 0] [81] 0 0
D 1.764139657 _7_ RTR  IFQ 4 17 cbr 230 [0 0 0 0] ------- [7:0 5:2 30 0] [17] 0 0
s 1.775339657 _7_ AGT  --- 4 82 cbr 210 [0 0 0 0] ------- [7:0 5:2 32 0] [82] 0 0
D 1.775339657 _7_ RTR  IFQ 4 18 cbr 230 [0 0 0 0] ------- [7:0 5:2 30 0] [18] 0 0
s 1.786539657 _7_ AGT  --- 4 83 cbr 210 [0 0 0 0] ------- [7:0 5:2 32 0] [83] 0 0
D 1.786539657 _7_ RTR  IFQ 4 19 cbr 230 [0 0 0 0] ------- [7:0 5:2 30 0] [19] 0 0
s 1.797739657 _7_ AGT  --- 4 84 cbr 210 [0 0 0 0] ------- [7:0 5:2 32 0] [84] 0 0
D 1.797739657 _7_ RTR  IFQ 4 20 cbr 230 [0 0 0 0] ------- [7:0 5:2 30 0] [20] 0 0
s 1.808939657 _7_ AGT  --- 4 85 cbr 210 [0 0 0 0] ------- [7:0 5:2 32 0] [85] 0 0
D 1.808939657 _7_ RTR  IFQ 4 21 cbr 230 [0 0 0 0] ------- [7:0 5:2 30 0] [21] 0 0
s 1.820139657 _7_ AGT  --- 4 86 cbr 210 [0 0 0 0] ------- [7:0 5:2 32 0] [86] 0 0
D 1.820139657 _7_ RTR  IFQ 4 22 cbr 230 [0 0 0 0] ------- [7:0 5:2 30 0] [22] 0 0
s 1.831339657 _7_ AGT  --- 4 87 cbr 210 [0 0 0 0] ------- [7:0 5:2 32 0] [87] 0 0
D 1.831339657 _7_ RTR  IFQ 4 23 cbr 230 [0 0 0 0] ------- [7:0 5:2 30 0] [23] 0 0
s 1.842539657 _7_ AGT  --- 4 88 cbr 210 [0 0 0 0] ------- [7:0 5:2 32 0] [88] 0 0
D 1.842539657 _7_ RTR  IFQ 4 24 cbr 230 [0 0 0 0] ------- [7:0 5:2 30 0] [24] 0 0
s 1.853739657 _7_ AGT  --- 4 89 cbr 210 [0 0 0 0] ------- [7:0 5:2 32 0] [89] 0 0
D 1.853739657 _7_ RTR  IFQ 4 25 cbr 230 [0 0 0 0] ------- [7:0 5:2 30 0] [25] 0 0
s 1.864939657 _7_ AGT  --- 4 90 cbr 210 [0 0 0 0] ------- [7:0 5:2 32 0] [90] 0 0
D 1.864939657 _7_ RTR  IFQ 4 26 cbr 230 [0 0 0 0] ------- [7:0 5:2 30 0] [26] 0 0
s 1.876139657 _7_ AGT  --- 4 91 cbr 210 [0 0 0 0] ------- [7:0 5:2 32 0] [91] 0 0
D 1.876139657 _7_ RTR  IFQ 4 27 cbr 230 [0 0 0 0] ------- [7:0 5:2 30 0] [27] 0 0
s 1.887339657 _7_ AGT  --- 4 92 cbr 210 [0 0 0 0] ------- [7:0 5:2 32 0] [92] 0 0
D 1.887339657 _7_ RTR  IFQ 4 28 cbr 230 [0 0 0 0] ------- [7:0 5:2 30 0] [28] 0 0
s 1.898539657 _7_ AGT  --- 4 93 cbr 210 [0 0 0 0] ------- [7:0 5:2 32 0] [93] 0 0
D 1.898539657 _7_ RTR  IFQ 4 29 cbr 230 [0 0 0 0] ------- [7:0 5:2 30 0] [29] 0 0
s 1.909739657 _7_ AGT  --- 4 94 cbr 210 [0 0 0 0] ------- [7:0 5:2 32 0] [94] 0 0
D 1.909739657 _7_ RTR  IFQ 4 30 cbr 230 [0 0 0 0] ------- [7:0 5:2 30 0] [30] 0 0
s 1.920939657 _7_ AGT  --- 4 95 cbr 210 [0 0 0 0] ------- [7:0 5:2 32 0] [95] 0 0
D 1.920939657 _7_ RTR  IFQ 4 31 cbr 230 [0 0 0 0] ------- [7:0 5:2 30 0] [31] 0 0
s 1.932139657 _7_ AGT  --- 4 96 cbr 210 [0 0 0 0] ------- [7:0 5:2 32 0] [96] 0 0
D 1.932139657 _7_ RTR  IFQ 4 32 cbr 230 [0 0 0 0] ------- [7:0 5:2 30 0] [32] 0 0
s 1.943339657 _7_ AGT  --- 4 97 cbr 210 [0 0 0 0] ------- [7:0 5:2 32 0] [97] 0 0
D 1.943339657 _7_ RTR  IFQ 4 33 cbr 230 [0 0 0 0] ------- [7:0 5:2 30 0] [33] 0 0
s 1.954539657 _7_ AGT  --- 4 98 cbr 210 [0 0 0 0] ------- [7:0 5:2 32 0] [98] 0 0
D 1.954539657 _7_ RTR  IFQ 4 34 cbr 230 [0 0 0 0] ------- [7:0 5:2 30 0] [34] 0 0
s 1.965739657 _7_ AGT  --- 4 99 cbr 210 [0 0 0 0] ------- [7:0 5:2 32 0] [99] 0 0
D 1.965739657 _7_ RTR  IFQ 4 35 cbr 230 [0 0 0 0] ------- [7:0 5:2 30 0] [35] 0 0
s 1.976939657 _7_ AGT  --- 4 100 cbr 210 [0 0 0 0] ------- [7:0 5:2 32 0] [100] 0 0
D 1.976939657 _7_ RTR  IFQ 4 36 cbr 230 [0 0 0 0] ------- [7:0 5:2 30 0] [36] 0 0
s 1.988139657 _7_ AGT  --- 4 101 cbr 210 [0 0 0 0] ------- [7:0 5:2 32 0] [101] 0 0
D 1.988139657 _7_ RTR  IFQ 4 37 cbr 230 [0 0 0 0] ------- [7:0 5:2 30 0] [37] 0 0
s 1.999339657 _7_ AGT  --- 4 102 cbr 210 [0 0 0 0] ------- [7:0 5:2 32 0] [102] 0 0
D 1.999339657 _7_ RTR  IFQ 4 38 cbr 230 [0 0 0 0] ------- [7:0 5:2 30 0] [38] 0 0
s 2.010539657 _7_ AGT  --- 4 103 cbr 210 [0 0 0 0] ------- [7:0 5:2 32 0] [103] 0 0
D 2.010539657 _7_ RTR  IFQ 4 39 cbr 230 [0 0 0 0] ------- [7:0 5:2 30 0] [39] 0 0
s 2.021739657 _7_ AGT  --- 4 104 cbr 210 [0 0 0 0] ------- [7:0 5:2 32 0] [104] 0 0
D 2.021739657 _7_ RTR  IFQ 4 40 cbr 230 [0 0 0 0] ------- [7:0 5:2 30 0] [40] 0 0
s 2.032939657 _7_ AGT  --- 4 105 cbr 210 [0 0 0 0] ------- [7:0 5:2 32 0] [105] 0 0
D 2.032939657 _7_ RTR  IFQ 4 41 cbr 230 [0 0 0 0] ------- [7:0 5:2 30 0] [41] 0 0
s 2.044139657 _7_ AGT  --- 4 106 cbr 210 [0 0 0 0] ------- [7:0 5:2 32 0] [106] 0 0
D 2.044139657 _7_ RTR  IFQ 4 42 cbr 230 [0 0 0 0] ------- [7:0 5:2 30 0] [42] 0 0
s 2.055339657 _7_ AGT  --- 4 107 cbr 210 [0 0 0 0] ------- [7:0 5:2 32 0] [107] 0 0
D 2.055339657 _7_ RTR  IFQ 4 43 cbr 230 [0 0 0 0] ------- [7:0 5:2 30 0] [43] 0 0
s 2.066539657 _7_ AGT  --- 4 108 cbr 210 [0 0 0 0] ------- [7:0 5:2 32 0] [108] 0 0
D 2.066539657 _7_ RTR  IFQ 4 44 cbr 230 [0 0 0 0] ------- [7:0 5:2 30 0] [44] 0 0
s 2.077739657 _7_ AGT  --- 4 109 cbr 210 [0 0 0 0] ------- [7:0 5:2 32 0] [109] 0 0
D 2.077739657 _7_ RTR  IFQ 4 45 cbr 230 [0 0 0 0] ------- [7:0 5:2 30 0] [45] 0 0
s 2.088939657 _7_ AGT  --- 4 110 cbr 210 [0 0 0 0] ------- [7:0 5:2 32 0] [110] 0 0
D 2.088939657 _7_ RTR  IFQ 4 46 cbr 230 [0 0 0 0] ------- [7:0 5:2 30 0] [46] 0 0
s 2.100139657 _7_ AGT  --- 4 111 cbr 210 [0 0 0 0] ------- [7:0 5:2 32 0] [111] 0 0
D 2.100139657 _7_ RTR  IFQ 4 47 cbr 230 [0 0 0 0] ------- [7:0 5:2 30 0] [47] 0 0
s 2.111339657 _7_ AGT  --- 4 112 cbr 210 [0 0 0 0] ------- [7:0 5:2 32 0] [112] 0 0
D 2.111339657 _7_ RTR  IFQ 4 48 cbr 230 [0 0 0 0] ------- [7:0 5:2 30 0] [48] 0 0
s 2.122539657 _7_ AGT  --- 4 113 cbr 210 [0 0 0 0] ------- [7:0 5:2 32 0] [113] 0 0
D 2.122539657 _7_ RTR  IFQ 4 49 cbr 230 [0 0 0 0] ------- [7:0 5:2 30 0] [49] 0 0
s 2.133739657 _7_ AGT  --- 4 114 cbr 210 [0 0 0 0] ------- [7:0 5:2 32 0] [114] 0 0
D 2.133739657 _7_ RTR  IFQ 4 50 cbr 230 [0 0 0 0] ------- [7:0 5:2 30 0] [50] 0 0
s 2.144939657 _7_ AGT  --- 4 115 cbr 210 [0 0 0 0] ------- [7:0 5:2 32 0] [115] 0 0
D 2.144939657 _7_ RTR  IFQ 4 51 cbr 230 [0 0 0 0] ------- [7:0 5:2 30 0] [51] 0 0
s 2.156139657 _7_ AGT  --- 4 116 cbr 210 [0 0 0 0] ------- [7:0 5:2 32 0] [116] 0 0
D 2.156139657 _7_ RTR  IFQ 4 52 cbr 230 [0 0 0 0] ------- [7:0 5:2 30 0] [52] 0 0
s 2.167339657 _7_ AGT  --- 4 117 cbr 210 [0 0 0 0] ------- [7:0 5:2 32 0] [117] 0 0
D 2.167339657 _7_ RTR  IFQ 4 53 cbr 230 [0 0 0 0] ------- [7:0 5:2 30 0] [53] 0 0
s 2.178539657 _7_ AGT  --- 4 118 cbr 210 [0 0 0 0] ------- [7:0 5:2 32 0] [118] 0 0
D 2.178539657 _7_ RTR  IFQ 4 54 cbr 230 [0 0 0 0] ------- [7:0 5:2 30 0] [54] 0 0
s 2.189739657 _7_ AGT  --- 4 119 cbr 210 [0 0 0 0] ------- [7:0 5:2 32 0] [119] 0 0
D 2.189739657 _7_ RTR  IFQ 4 55 cbr 230 [0 0 0 0] ------- [7:0 5:2 30 0] [55] 0 0
s 2.200939657 _7_ AGT  --- 4 120 cbr 210 [0 0 0 0] ------- [7:0 5:2 32 0] [120] 0 0
D 2.200939657 _7_ RTR  IFQ 4 56 cbr 230 [0 0 0 0] ------- [7:0 5:2 30 0] [56] 0 0
s 2.212139657 _7_ AGT  --- 4 121 cbr 210 [0 0 0 0] ------- [7:0 5:2 32 0] [121] 0 0
D 2.212139657 _7_ RTR  IFQ 4 57 cbr 230 [0 0 0 0] ------- [7:0 5:2 30 0] [57] 0 0
s 2.223339657 _7_ AGT  --- 4 122 cbr 210 [0 0 0 0] ------- [7:0 5:2 32 0] [122] 0 0
D 2.223339657 _7_ RTR  IFQ 4 58 cbr 230 [0 0 0 0] ------- [7:0 5:2 30 0] [58] 0 0
s 2.234539657 _7_ AGT  --- 4 123 cbr 210 [0 0 0 0] ------- [7:0 5:2 32 0] [123] 0 0
D 2.234539657 _7_ RTR  IFQ 4 59 cbr 230 [0 0 0 0] ------- [7:0 5:2 30 0] [59] 0 0
s 2.245739657 _7_ AGT  --- 4 124 cbr 210 [0 0 0 0] ------- [7:0 5:2 32 0] [124] 0 0
D 2.245739657 _7_ RTR  IFQ 4 60 cbr 230 [0 0 0 0] ------- [7:0 5:2 30 0] [60] 0 0
s 2.256939657 _7_ AGT  --- 4 125 cbr 210 [0 0 0 0] ------- [7:0 5:2 32 0] [125] 0 0
D 2.256939657 _7_ RTR  IFQ 4 61 cbr 230 [0 0 0 0] ------- [7:0 5:2 30 0] [61] 0 0
s 2.268139657 _7_ AGT  --- 4 126 cbr 210 [0 0 0 0] ------- [7:0 5:2 32 0] [126] 0 0
D 2.268139657 _7_ RTR  IFQ 4 62 cbr 230 [0 0 0 0] ------- [7:0 5:2 30 0] [62] 0 0
s 2.279339657 _7_ AGT  --- 4 127 cbr 210 [0 0 0 0] ------- [7:0 5:2 32 0] [127] 0 0
D 2.279339657 _7_ RTR  IFQ 4 63 cbr 230 [0 0 0 0] ------- [7:0 5:2 30 0] [63] 0 0
s 2.290539657 _7_ AGT  --- 4 128 cbr 210 [0 0 0 0] ------- [7:0 5:2 32 0] [128] 0 0
D 2.290539657 _7_ RTR  IFQ 4 64 cbr 230 [0 0 0 0] ------- [7:0 5:2 30 0] [64] 0 0
s 2.301739657 _7_ AGT  --- 4 129 cbr 210 [0 0 0 0] ------- [7:0 5:2 32 0] [129] 0 0
D 2.301739657 _7_ RTR  IFQ 4 65 cbr 230 [0 0 0 0] ------- [7:0 5:2 30 0] [65] 0 0
s 2.312939657 _7_ AGT  --- 4 130 cbr 210 [0 0 0 0] ------- [7:0 5:2 32 0] [130] 0 0
D 2.312939657 _7_ RTR  IFQ 4 66 cbr 230 [0 0 0 0] ------- [7:0 5:2 30 0] [66] 0 0
s 2.324139657 _7_ AGT  --- 4 131 cbr 210 [0 0 0 0] ------- [7:0 5:2 32 0] [131] 0 0
D 2.324139657 _7_ RTR  IFQ 4 67 cbr 230 [0 0 0 0] ------- [7:0 5:2 30 0] [67] 0 0
s 2.335339657 _7_ AGT  --- 4 132 cbr 210 [0 0 0 0] ------- [7:0 5:2 32 0] [132] 0 0
D 2.335339657 _7_ RTR  IFQ 4 68 cbr 230 [0 0 0 0] ------- [7:0 5:2 30 0] [68] 0 0
s 2.346539657 _7_ AGT  --- 4 133 cbr 210 [0 0 0 0] ------- [7:0 5:2 32 0] [133] 0 0
D 2.346539657 _7_ RTR  IFQ 4 69 cbr 230 [0 0 0 0] ------- [7:0 5:2 30 0] [69] 0 0
s 2.357739657 _7_ AGT  --- 4 134 cbr 210 [0 0 0 0] ------- [7:0 5:2 32 0] [134] 0 0
D 2.357739657 _7_ RTR  IFQ 4 70 cbr 230 [0 0 0 0] ------- [7:0 5:2 30 0] [70] 0 0
s 2.368939657 _7_ AGT  --- 4 135 cbr 210 [0 0 0 0] ------- [7:0 5:2 32 0] [135] 0 0
D 2.368939657 _7_ RTR  IFQ 4 71 cbr 230 [0 0 0 0] ------- [7:0 5:2 30 0] [71] 0 0
s 2.380139657 _7_ AGT  --- 4 136 cbr 210 [0 0 0 0] ------- [7:0 5:2 32 0] [136] 0 0
D 2.380139657 _7_ RTR  IFQ 4 72 cbr 230 [0 0 0 0] ------- [7:0 5:2 30 0] [72] 0 0
s 2.391339657 _7_ AGT  --- 4 137 cbr 210 [0 0 0 0] ------- [7:0 5:2 32 0] [137] 0 0
D 2.391339657 _7_ RTR  IFQ 4 73 cbr 230 [0 0 0 0] ------- [7:0 5:2 30 0] [73] 0 0
s 2.402539657 _7_ AGT  --- 4 138 cbr 210 [0 0 0 0] ------- [7:0 5:2 32 0] [138] 0 0
D 2.402539657 _7_ RTR  IFQ 4 74 cbr 230 [0 0 0 0] ------- [7:0 5:2 30 0] [74] 0 0
s 2.413739657 _7_ AGT  --- 4 139 cbr 210 [0 0 0 0] ------- [7:0 5:2 32 0] [139] 0 0
D 2.413739657 _7_ RTR  IFQ 4 75 cbr 230 [0 0 0 0] ------- [7:0 5:2 30 0] [75] 0 0
s 2.424939657 _7_ AGT  --- 4 140 cbr 210 [0 0 0 0] ------- [7:0 5:2 32 0] [140] 0 0
D 2.424939657 _7_ RTR  IFQ 4 76 cbr 230 [0 0 0 0] ------- [7:0 5:2 30 0] [76] 0 0
s 2.436139657 _7_ AGT  --- 4 141 cbr 210 [0 0 0 0] ------- [7:0 5:2 32 0] [141] 0 0
D 2.436139657 _7_ RTR  IFQ 4 77 cbr 230 [0 0 0 0] ------- [7:0 5:2 30 0] [77] 0 0
s 2.447339657 _7_ AGT  --- 4 142 cbr 210 [0 0 0 0] ------- [7:0 5:2 32 0] [142] 0 0
D 2.447339657 _7_ RTR  IFQ 4 78 cbr 230 [0 0 0 0] ------- [7:0 5:2 30 0] [78] 0 0
s 2.458539657 _7_ AGT  --- 4 143 cbr 210 [0 0 0 0] ------- [7:0 5:2 32 0] [143] 0 0
D 2.458539657 _7_ RTR  IFQ 4 79 cbr 230 [0 0 0 0] ------- [7:0 5:2 30 0] [79] 0 0
s 2.469739657 _7_ AGT  --- 4 144 cbr 210 [0 0 0 0] ------- [7:0 5:2 32 0] [144] 0 0
D 2.469739657 _7_ RTR  IFQ 4 80 cbr 230 [0 0 0 0] ------- [7:0 5:2 30 0] [80] 0 0
s 2.480939657 _7_ AGT  --- 4 145 cbr 210 [0 0 0 0] ------- [7:0 5:2 32 0] [145] 0 0
D 2.480939657 _7_ RTR  IFQ 4 81 cbr 230 [0 0 0 0] ------- [7:0 5:2 30 0] [81] 0 0
s 2.492139657 _7_ AGT  --- 4 146 cbr 210 [0 0 0 0] ------- [7:0 5:2 32 0] [146] 0 0
D 2.492139657 _7_ RTR  IFQ 4 82 cbr 230 [0 0 0 0] ------- [7:0 5:2 30 0] [82] 0 0
s 2.503339657 _7_ AGT  --- 4 147 cbr 210 [0 0 0 0] ------- [7:0 5:2 32 0] [147] 0 0
D 2.503339657 _7_ RTR  IFQ 4 83 cbr 230 [0 0 0 0] ------- [7:0 5:2 30 0] [83] 0 0
s 2.514539657 _7_ AGT  --- 4 148 cbr 210 [0 0 0 0] ------- [7:0 5:2 32 0] [148] 0 0
D 2.514539657 _7_ RTR  IFQ 4 84 cbr 230 [0 0 0 0] ------- [7:0 5:2 30 0] [84] 0 0
s 2.525739657 _7_ AGT  --- 4 149 cbr 210 [0 0 0 0] ------- [7:0 5:2 32 0] [149] 0 0
D 2.525739657 _7_ RTR  IFQ 4 85 cbr 230 [0 0 0 0] ------- [7:0 5:2 30 0] [85] 0 0
s 2.536939657 _7_ AGT  --- 4 150 cbr 210 [0 0 0 0] ------- [7:0 5:2 32 0] [150] 0 0
D 2.536939657 _7_ RTR  IFQ 4 86 cbr 230 [0 0 0 0] ------- [7:0 5:2 30 0] [86] 0 0
s 2.548139657 _7_ AGT  --- 4 151 cbr 210 [0 0 0 0] ------- [7:0 5:2 32 0] [151] 0 0
D 2.548139657 _7_ RTR  IFQ 4 87 cbr 230 [0 0 0 0] ------- [7:0 5:2 30 0] [87] 0 0
s 2.559339657 _7_ AGT  --- 4 152 cbr 210 [0 0 0 0] ------- [7:0 5:2 32 0] [152] 0 0
D 2.559339657 _7_ RTR  IFQ 4 88 cbr 230 [0 0 0 0] ------- [7:0 5:2 30 0] [88] 0 0
s 2.570539657 _7_ AGT  --- 4 153 cbr 210 [0 0 0 0] ------- [7:0 5:2 32 0] [153] 0 0
D 2.570539657 _7_ RTR  IFQ 4 89 cbr 230 [0 0 0 0] ------- [7:0 5:2 30 0] [89] 0 0
s 2.581739657 _7_ AGT  --- 4 154 cbr 210 [0 0 0 0] ------- [7:0 5:2 32 0] [154] 0 0
D 2.581739657 _7_ RTR  IFQ 4 90 cbr 230 [0 0 0 0] ------- [7:0 5:2 30 0] [90] 0 0
s 3.427723657 _0_ AGT  --- 3 155 cbr 210 [0 0 0 0] ------- [0:0 5:1 32 0] [0] 0 0
s 3.438923657 _0_ AGT  --- 3 156 cbr 210 [0 0 0 0] ------- [0:0 5:1 32 0] [1] 0 0
s 3.450123657 _0_ AGT  --- 3 157 cbr 210 [0 0 0 0] ------- [0:0 5:1 32 0] [2] 0 0
s 3.461323657 _0_ AGT  --- 3 158 cbr 210 [0 0 0 0] ------- [0:0 5:1 32 0] [3] 0 0
s 3.472523657 _0_ AGT  --- 3 159 cbr 210 [0 0 0 0] ------- [0:0 5:1 32 0] [4] 0 0
s 3.483723657 _0_ AGT  --- 3 160 cbr 210 [0 0 0 0] ------- [0:0 5:1 32 0] [5] 0 0
s 3.494923657 _0_ AGT  --- 3 161 cbr 210 [0 0 0 0] ------- [0:0 5:1 32 0] [6] 0 0
s 3.506123657 _0_ AGT  --- 3 162 cbr 210 [0 0 0 0] ------- [0:0 5:1 32 0] [7] 0 0
s 3.517323657 _0_ AGT  --- 3 163 cbr 210 [0 0 0 0] ------- [0:0 5:1 32 0] [8] 0 0
s 3.528523657 _0_ AGT  --- 3 164 cbr 210 [0 0 0 0] ------- [0:0 5:1 32 0] [9] 0 0
s 3.539723657 _0_ AGT  --- 3 165 cbr 210 [0 0 0 0] ------- [0:0 5:1 32 0] [10] 0 0
s 3.550923657 _0_ AGT  --- 3 166 cbr 210 [0 0 0 0] ------- [0:0 5:1 32 0] [11] 0 0
s 3.562123657 _0_ AGT  --- 3 167 cbr 210 [0 0 0 0] ------- [0:0 5:1 32 0] [12] 0 0
s 3.573323657 _0_ AGT  --- 3 168 cbr 210 [0 0 0 0] ------- [0:0 5:1 32 0] [13] 0 0
s 3.584523657 _0_ AGT  --- 3 169 cbr 210 [0 0 0 0] ------- [0:0 5:1 32 0] [14] 0 0
s 3.595723657 _0_ AGT  --- 3 170 cbr 210 [0 0 0 0] ------- [0:0 5:1 32 0] [15] 0 0
s 3.606923657 _0_ AGT  --- 3 171 cbr 210 [0 0 0 0] ------- [0:0 5:1 32 0] [16] 0 0
s 3.618123657 _0_ AGT  --- 3 172 cbr 210 [0 0 0 0] ------- [0:0 5:1 32 0] [17] 0 0
s 3.629323657 _0_ AGT  --- 3 173 cbr 210 [0 0 0 0] ------- [0:0 5:1 32 0] [18] 0 0
s 3.640523657 _0_ AGT  --- 3 174 cbr 210 [0 0 0 0] ------- [0:0 5:1 32 0] [19] 0 0
s 3.651723657 _0_ AGT  --- 3 175 cbr 210 [0 0 0 0] ------- [0:0 5:1 32 0] [20] 0 0
s 3.662923657 _0_ AGT  --- 3 176 cbr 210 [0 0 0 0] ------- [0:0 5:1 32 0] [21] 0 0
s 3.674123657 _0_ AGT  --- 3 177 cbr 210 [0 0 0 0] ------- [0:0 5:1 32 0] [22] 0 0
s 3.685323657 _0_ AGT  --- 3 178 cbr 210 [0 0 0 0] ------- [0:0 5:1 32 0] [23] 0 0
s 3.696523657 _0_ AGT  --- 3 179 cbr 210 [0 0 0 0] ------- [0:0 5:1 32 0] [24] 0 0
s 3.707723657 _0_ AGT  --- 3 180 cbr 210 [0 0 0 0] ------- [0:0 5:1 32 0] [25] 0 0
s 3.718923657 _0_ AGT  --- 3 181 cbr 210 [0 0 0 0] ------- [0:0 5:1 32 0] [26] 0 0
s 3.730123657 _0_ AGT  --- 3 182 cbr 210 [0 0 0 0] ------- [0:0 5:1 32 0] [27] 0 0
s 3.741323657 _0_ AGT  --- 3 183 cbr 210 [0 0 0 0] ------- [0:0 5:1 32 0] [28] 0 0
s 3.752523657 _0_ AGT  --- 3 184 cbr 210 [0 0 0 0] ------- [0:0 5:1 32 0] [29] 0 0
s 3.763723657 _0_ AGT  --- 3 185 cbr 210 [0 0 0 0] ------- [0:0 5:1 32 0] [30] 0 0
s 3.774923657 _0_ AGT  --- 3 186 cbr 210 [0 0 0 0] ------- [0:0 5:1 32 0] [31] 0 0
s 3.786123657 _0_ AGT  --- 3 187 cbr 210 [0 0 0 0] ------- [0:0 5:1 32 0] [32] 0 0
s 3.797323657 _0_ AGT  --- 3 188 cbr 210 [0 0 0 0] ------- [0:0 5:1 32 0] [33] 0 0
s 3.808523657 _0_ AGT  --- 3 189 cbr 210 [0 0 0 0] ------- [0:0 5:1 32 0] [34] 0 0
s 3.819723657 _0_ AGT  --- 3 190 cbr 210 [0 0 0 0] ------- [0:0 5:1 32 0] [35] 0 0
s 3.830923657 _0_ AGT  --- 3 191 cbr 210 [0 0 0 0] ------- [0:0 5:1 32 0] [36] 0 0
s 3.842123657 _0_ AGT  --- 3 192 cbr 210 [0 0 0 0] ------- [0:0 5:1 32 0] [37] 0 0
s 3.853323657 _0_ AGT  --- 3 193 cbr 210 [0 0 0 0] ------- [0:0 5:1 32 0] [38] 0 0
s 3.864523657 _0_ AGT  --- 3 194 cbr 210 [0 0 0 0] ------- [0:0 5:1 32 0] [39] 0 0
s 3.875723657 _0_ AGT  --- 3 195 cbr 210 [0 0 0 0] ------- [0:0 5:1 32 0] [40] 0 0
s 3.886923657 _0_ AGT  --- 3 196 cbr 210 [0 0 0 0] ------- [0:0 5:1 32 0] [41] 0 0
s 3.898123657 _0_ AGT  --- 3 197 cbr 210 [0 0 0 0] ------- [0:0 5:1 32 0] [42] 0 0
s 3.909323657 _0_ AGT  --- 3 198 cbr 210 [0 0 0 0] ------- [0:0 5:1 32 0] [43] 0 0
s 3.920523657 _0_ AGT  --- 3 199 cbr 210 [0 0 0 0] ------- [0:0 5:1 32 0] [44] 0 0
s 3.931723657 _0_ AGT  --- 3 200 cbr 210 [0 0 0 0] ------- [0:0 5:1 32 0] [45] 0 0
s 3.942923657 _0_ AGT  --- 3 201 cbr 210 [0 0 0 0] ------- [0:0 5:1 32 0] [46] 0 0
s 3.954123657 _0_ AGT  --- 3 202 cbr 210 [0 0 0 0] ------- [0:0 5:1 32 0] [47] 0 0
s 3.965323657 _0_ AGT  --- 3 203 cbr 210 [0 0 0 0] ------- [0:0 5:1 32 0] [48] 0 0
s 3.976523657 _0_ AGT  --- 3 204 cbr 210 [0 0 0 0] ------- [0:0 5:1 32 0] [49] 0 0
s 3.987723657 _0_ AGT  --- 3 205 cbr 210 [0 0 0 0] ------- [0:0 5:1 32 0] [50] 0 0
s 3.998923657 _0_ AGT  --- 3 206 cbr 210 [0 0 0 0] ------- [0:0 5:1 32 0] [51] 0 0
s 4.010123657 _0_ AGT  --- 3 207 cbr 210 [0 0 0 0] ------- [0:0 5:1 32 0] [52] 0 0
s 4.021323657 _0_ AGT  --- 3 208 cbr 210 [0 0 0 0] ------- [0:0 5:1 32 0] [53] 0 0
s 4.032523657 _0_ AGT  --- 3 209 cbr 210 [0 0 0 0] ------- [0:0 5:1 32 0] [54] 0 0
s 4.043723657 _0_ AGT  --- 3 210 cbr 210 [0 0 0 0] ------- [0:0 5:1 32 0] [55] 0 0
s 4.054923657 _0_ AGT  --- 3 211 cbr 210 [0 0 0 0] ------- [0:0 5:1 32 0] [56] 0 0
s 4.066123657 _0_ AGT  --- 3 212 cbr 210 [0 0 0 0] ------- [0:0 5:1 32 0] [57] 0 0
s 4.077323657 _0_ AGT  --- 3 213 cbr 210 [0 0 0 0] ------- [0:0 5:1 32 0] [58] 0 0
s 4.088523657 _0_ AGT  --- 3 214 cbr 210 [0 0 0 0] ------- [0:0 5:1 32 0] [59] 0 0
s 4.099723657 _0_ AGT  --- 3 215 cbr 210 [0 0 0 0] ------- [0:0 5:1 32 0] [60] 0 0
s 4.110923657 _0_ AGT  --- 3 216 cbr 210 [0 0 0 0] ------- [0:0 5:1 32 0] [61] 0 0
s 4.122123657 _0_ AGT  --- 3 217 cbr 210 [0 0 0 0] ------- [0:0 5:1 32 0] [62] 0 0
s 4.133323657 _0_ AGT  --- 3 218 cbr 210 [0 0 0 0] ------- [0:0 5:1 32 0] [63] 0 0
s 4.144523657 _0_ AGT  --- 3 219 cbr 210 [0 0 0 0] ------- [0:0 5:1 32 0] [64] 0 0
D 4.144523657 _0_ RTR  IFQ 3 155 cbr 230 [0 0 0 0] ------- [0:0 5:1 30 0] [0] 0 0
s 4.155723657 _0_ AGT  --- 3 220 cbr 210 [0 0 0 0] ------- [0:0 5:1 32 0] [65] 0 0
D 4.155723657 _0_ RTR  IFQ 3 156 cbr 230 [0 0 0 0] ------- [0:0 5:1 30 0] [1] 0 0
s 4.166923657 _0_ AGT  --- 3 221 cbr 210 [0 0 0 0] ------- [0:0 5:1 32 0] [66] 0 0
D 4.166923657 _0_ RTR  IFQ 3 157 cbr 230 [0 0 0 0] ------- [0:0 5:1 30 0] [2] 0 0
s 4.178123657 _0_ AGT  --- 3 222 cbr 210 [0 0 0 0] ------- [0:0 5:1 32 0] [67] 0 0
D 4.178123657 _0_ RTR  IFQ 3 158 cbr 230 [0 0 0 0] ------- [0:0 5:1 30 0] [3] 0 0
s 4.189323657 _0_ AGT  --- 3 223 cbr 210 [0 0 0 0] ------- [0:0 5:1 32 0] [68] 0 0
D 4.189323657 _0_ RTR  IFQ 3 159 cbr 230 [0 0 0 0] ------- [0:0 5:1 30 0] [4] 0 0
s 4.200523657 _0_ AGT  --- 3 224 cbr 210 [0 0 0 0] ------- [0:0 5:1 32 0] [69] 0 0
D 4.200523657 _0_ RTR  IFQ 3 160 cbr 230 [0 0 0 0] ------- [0:0 5:1 30 0] [5] 0 0
s 4.211723657 _0_ AGT  --- 3 225 cbr 210 [0 0 0 0] ------- [0:0 5:1 32 0] [70] 0 0
D 4.211723657 _0_ RTR  IFQ 3 161 cbr 230 [0 0 0 0] ------- [0:0 5:1 30 0] [6] 0 0
s 4.222923657 _0_ AGT  --- 3 226 cbr 210 [0 0 0 0] ------- [0:0 5:1 32 0] [71] 0 0
D 4.222923657 _0_ RTR  IFQ 3 162 cbr 230 [0 0 0 0] ------- [0:0 5:1 30 0] [7] 0 0
s 4.234123657 _0_ AGT  --- 3 227 cbr 210 [0 0 0 0] ------- [0:0 5:1 32 0] [72] 0 0
D 4.234123657 _0_ RTR  IFQ 3 163 cbr 230 [0 0 0 0] ------- [0:0 5:1 30 0] [8] 0 0
s 4.245323657 _0_ AGT  --- 3 228 cbr 210 [0 0 0 0] ------- [0:0 5:1 32 0] [73] 0 0
D 4.245323657 _0_ RTR  IFQ 3 164 cbr 230 [0 0 0 0] ------- [0:0 5:1 30 0] [9] 0 0
s 4.256523657 _0_ AGT  --- 3 229 cbr 210 [0 0 0 0] ------- [0:0 5:1 32 0] [74] 0 0
D 4.256523657 _0_ RTR  IFQ 3 165 cbr 230 [0 0 0 0] ------- [0:0 5:1 30 0] [10] 0 0
s 4.267723657 _0_ AGT  --- 3 230 cbr 210 [0 0 0 0] ------- [0:0 5:1 32 0] [75] 0 0
D 4.267723657 _0_ RTR  IFQ 3 166 cbr 230 [0 0 0 0] ------- [0:0 5:1 30 0] [11] 0 0
s 4.278923657 _0_ AGT  --- 3 231 cbr 210 [0 0 0 0] ------- [0:0 5:1 32 0] [76] 0 0
D 4.278923657 _0_ RTR  IFQ 3 167 cbr 230 [0 0 0 0] ------- [0:0 5:1 30 0] [12] 0 0
s 4.290123657 _0_ AGT  --- 3 232 cbr 210 [0 0 0 0] ------- [0:0 5:1 32 0] [77] 0 0
D 4.290123657 _0_ RTR  IFQ 3 168 cbr 230 [0 0 0 0] ------- [0:0 5:1 30 0] [13] 0 0
s 4.301323657 _0_ AGT  --- 3 233 cbr 210 [0 0 0 0] ------- [0:0 5:1 32 0] [78] 0 0
D 4.301323657 _0_ RTR  IFQ 3 169 cbr 230 [0 0 0 0] ------- [0:0 5:1 30 0] [14] 0 0
s 4.312523657 _0_ AGT  --- 3 234 cbr 210 [0 0 0 0] ------- [0:0 5:1 32 0] [79] 0 0
D 4.312523657 _0_ RTR  IFQ 3 170 cbr 230 [0 0 0 0] ------- [0:0 5:1 30 0] [15] 0 0
s 4.323723657 _0_ AGT  --- 3 235 cbr 210 [0 0 0 0] ------- [0:0 5:1 32 0] [80] 0 0
D 4.323723657 _0_ RTR  IFQ 3 171 cbr 230 [0 0 0 0] ------- [0:0 5:1 30 0] [16] 0 0
s 4.334923657 _0_ AGT  --- 3 236 cbr 210 [0 0 0 0] ------- [0:0 5:1 32 0] [81] 0 0
D 4.334923657 _0_ RTR  IFQ 3 172 cbr 230 [0 0 0 0] ------- [0:0 5:1 30 0] [17] 0 0
s 4.346123657 _0_ AGT  --- 3 237 cbr 210 [0 0 0 0] ------- [0:0 5:1 32 0] [82] 0 0
D 4.346123657 _0_ RTR  IFQ 3 173 cbr 230 [0 0 0 0] ------- [0:0 5:1 30 0] [18] 0 0
s 4.357323657 _0_ AGT  --- 3 238 cbr 210 [0 0 0 0] ------- [0:0 5:1 32 0] [83] 0 0
D 4.357323657 _0_ RTR  IFQ 3 174 cbr 230 [0 0 0 0] ------- [0:0 5:1 30 0] [19] 0 0
s 4.368523657 _0_ AGT  --- 3 239 cbr 210 [0 0 0 0] ------- [0:0 5:1 32 0] [84] 0 0
D 4.368523657 _0_ RTR  IFQ 3 175 cbr 230 [0 0 0 0] ------- [0:0 5:1 30 0] [20] 0 0
s 4.379723657 _0_ AGT  --- 3 240 cbr 210 [0 0 0 0] ------- [0:0 5:1 32 0] [85] 0 0
D 4.379723657 _0_ RTR  IFQ 3 176 cbr 230 [0 0 0 0] ------- [0:0 5:1 30 0] [21] 0 0
s 4.390923657 _0_ AGT  --- 3 241 cbr 210 [0 0 0 0] ------- [0:0 5:1 32 0] [86] 0 0
D 4.390923657 _0_ RTR  IFQ 3 177 cbr 230 [0 0 0 0] ------- [0:0 5:1 30 0] [22] 0 0
s 4.402123657 _0_ AGT  --- 3 242 cbr 210 [0 0 0 0] ------- [0:0 5:1 32 0] [87] 0 0
D 4.402123657 _0_ RTR  IFQ 3 178 cbr 230 [0 0 0 0] ------- [0:0 5:1 30 0] [23] 0 0
s 4.413323657 _0_ AGT  --- 3 243 cbr 210 [0 0 0 0] ------- [0:0 5:1 32 0] [88] 0 0
D 4.413323657 _0_ RTR  IFQ 3 179 cbr 230 [0 0 0 0] ------- [0:0 5:1 30 0] [24] 0 0
s 4.424523657 _0_ AGT  --- 3 244 cbr 210 [0 0 0 0] ------- [0:0 5:1 32 0] [89] 0 0
D 4.424523657 _0_ RTR  IFQ 3 180 cbr 230 [0 0 0 0] ------- [0:0 5:1 30 0] [25] 0 0
s 4.435723657 _0_ AGT  --- 3 245 cbr 210 [0 0 0 0] ------- [0:0 5:1 32 0] [90] 0 0