s 2.608036088 _12_ AGT  --- 1 0 cbr 210 [0 0 0 0] ------- [12:0 5:0 32 0] [0] 0 0
s 2.776036088 _12_ AGT  --- 1 1 cbr 210 [0 0 0 0] ------- [12:0 5:0 32 0] [1] 0 0
s 2.944036088 _12_ AGT  --- 1 2 cbr 210 [0 0 0 0] ------- [12:0 5:0 32 0] [2] 0 0
s 3.112036088 _12_ AGT  --- 1 3 cbr 210 [0 0 0 0] ------- [12:0 5:0 32 0] [3] 0 0
r 3.589153667 _5_ AGT  --- 1 0 cbr 230 [5 5 6 0] ------- [12:0 5:0 28 5] [0] 3 0
r 3.649153667 _5_ AGT  --- 1 1 cbr 230 [5 5 6 0] ------- [12:0 5:0 28 5] [1] 3 0
r 3.709153667 _5_ AGT  --- 1 2 cbr 230 [5 5 6 0] ------- [12:0 5:0 28 5] [2] 3 0
r 3.769153667 _5_ AGT  --- 1 3 cbr 230 [5 5 6 0] ------- [12:0 5:0 28 5] [3] 3 0
