n -t * -s 0  -x 50 -y 50 -Z 0 -z 10  -v circle -c black
n -t * -s 1  -x 50 -y 250 -Z 0 -z 10  -v circle -c black
n -t * -s 2  -x 50 -y 450 -Z 0 -z 10  -v circle -c black
n -t * -s 3  -x 50 -y 650 -Z 0 -z 10  -v circle -c black
n -t * -s 4  -x 50 -y 850 -Z 0 -z 10  -v circle -c black
n -t * -s 5  -x 250 -y 50 -Z 0 -z 10  -v circle -c black
n -t * -s 6  -x 250 -y 250 -Z 0 -z 10  -v circle -c black
n -t * -s 7  -x 250 -y 450 -Z 0 -z 10  -v circle -c black
n -t * -s 8  -x 250 -y 650 -Z 0 -z 10  -v circle -c black
n -t * -s 9  -x 250 -y 850 -Z 0 -z 10  -v circle -c black
n -t * -s 10  -x 450 -y 50 -Z 0 -z 10  -v circle -c black
n -t * -s 11  -x 450 -y 250 -Z 0 -z 10  -v circle -c black
n -t * -s 12  -x 450 -y 450 -Z 0 -z 10  -v circle -c black
n -t * -s 13  -x 450 -y 650 -Z 0 -z 10  -v circle -c black
n -t * -s 14  -x 450 -y 850 -Z 0 -z 10  -v circle -c black
n -t * -s 15  -x 650 -y 50 -Z 0 -z 10  -v circle -c black
n -t * -s 16  -x 650 -y 250 -Z 0 -z 10  -v circle -c black
n -t * -s 17  -x 650 -y 450 -Z 0 -z 10  -v circle -c black
n -t * -s 18  -x 650 -y 650 -Z 0 -z 10  -v circle -c black
n -t * -s 19  -x 650 -y 850 -Z 0 -z 10  -v circle -c black
n -t * -s 20  -x 850 -y 50 -Z 0 -z 10  -v circle -c black
n -t * -s 21  -x 850 -y 250 -Z 0 -z 10  -v circle -c black
n -t * -s 22  -x 850 -y 450 -Z 0 -z 10  -v circle -c black
n -t * -s 23  -x 850 -y 650 -Z 0 -z 10  -v circle -c black
n -t * -s 24  -x 850 -y 850 -Z 0 -z 10  -v circle -c black
V -t * -v 1.0a5 -a 0
W -t * -x 1000 -y 1000
A -t * -n 1 -p 0 -o 0x7fffffff -c 30 -a 1
A -t * -h 1 -m 1073741823 -s 0
+ -t 57.933113239 -s 0 -d -1 -p cbr -e 210 -c 2 -a 0 -i 0 -k AGT 
- -t 57.933113239 -s 0 -d -1 -p cbr -e 210 -c 2 -a 0 -i 0 -k AGT
h -t 57.933113239 -s 0 -d -1 -p cbr -e 210 -c 2 -a 0 -i 0 -k AGT
+ -t 57.951779905 -s 0 -d -1 -p cbr -e 210 -c 2 -a 0 -i 1 -k AGT 
- -t 57.951779905 -s 0 -d -1 -p cbr -e 210 -c 2 -a 0 -i 1 -k AGT
h -t 57.951779905 -s 0 -d -1 -p cbr -e 210 -c 2 -a 0 -i 1 -k AGT
+ -t 57.970446572 -s 0 -d -1 -p cbr -e 210 -c 2 -a 0 -i 2 -k AGT 
- -t 57.970446572 -s 0 -d -1 -p cbr -e 210 -c 2 -a 0 -i 2 -k AGT
h -t 57.970446572 -s 0 -d -1 -p cbr -e 210 -c 2 -a 0 -i 2 -k AGT
+ -t 57.989113239 -s 0 -d -1 -p cbr -e 210 -c 2 -a 0 -i 3 -k AGT 
- -t 57.989113239 -s 0 -d -1 -p cbr -e 210 -c 2 -a 0 -i 3 -k AGT
h -t 57.989113239 -s 0 -d -1 -p cbr -e 210 -c 2 -a 0 -i 3 -k AGT
+ -t 58.007779905 -s 0 -d -1 -p cbr -e 210 -c 2 -a 0 -i 4 -k AGT 
- -t 58.007779905 -s 0 -d -1 -p cbr -e 210 -c 2 -a 0 -i 4 -k AGT
h -t 58.007779905 -s 0 -d -1 -p cbr -e 210 -c 2 -a 0 -i 4 -k AGT
+ -t 58.026446572 -s 0 -d -1 -p cbr -e 210 -c 2 -a 0 -i 5 -k AGT 
- -t 58.026446572 -s 0 -d -1 -p cbr -e 210 -c 2 -a 0 -i 5 -k AGT
h -t 58.026446572 -s 0 -d -1 -p cbr -e 210 -c 2 -a 0 -i 5 -k AGT
+ -t 58.045113239 -s 0 -d -1 -p cbr -e 210 -c 2 -a 0 -i 6 -k AGT 
- -t 58.045113239 -s 0 -d -1 -p cbr -e 210 -c 2 -a 0 -i 6 -k AGT
h -t 58.045113239 -s 0 -d -1 -p cbr -e 210 -c 2 -a 0 -i 6 -k AGT
+ -t 58.063779905 -s 0 -d -1 -p cbr -e 210 -c 2 -a 0 -i 7 -k AGT 
- -t 58.063779905 -s 0 -d -1 -p cbr -e 210 -c 2 -a 0 -i 7 -k AGT
h -t 58.063779905 -s 0 -d -1 -p cbr -e 210 -c 2 -a 0 -i 7 -k AGT
+ -t 58.082446572 -s 0 -d -1 -p cbr -e 210 -c 2 -a 0 -i 8 -k AGT 
- -t 58.082446572 -s 0 -d -1 -p cbr -e 210 -c 2 -a 0 -i 8 -k AGT
h -t 58.082446572 -s 0 -d -1 -p cbr -e 210 -c 2 -a 0 -i 8 -k AGT
+ -t 58.101113239 -s 0 -d -1 -p cbr -e 210 -c 2 -a 0 -i 9 -k AGT 
- -t 58.101113239 -s 0 -d -1 -p cbr -e 210 -c 2 -a 0 -i 9 -k AGT
h -t 58.101113239 -s 0 -d -1 -p cbr -e 210 -c 2 -a 0 -i 9 -k AGT
+ -t 58.119779905 -s 0 -d -1 -p cbr -e 210 -c 2 -a 0 -i 10 -k AGT 
- -t 58.119779905 -s 0 -d -1 -p cbr -e 210 -c 2 -a 0 -i 10 -k AGT
h -t 58.119779905 -s 0 -d -1 -p cbr -e 210 -c 2 -a 0 -i 10 -k AGT
+ -t 58.138446572 -s 0 -d -1 -p cbr -e 210 -c 2 -a 0 -i 11 -k AGT 
- -t 58.138446572 -s 0 -d -1 -p cbr -e 210 -c 2 -a 0 -i 11 -k AGT
h -t 58.138446572 -s 0 -d -1 -p cbr -e 210 -c 2 -a 0 -i 11 -k AGT
+ -t 58.157113239 -s 0 -d -1 -p cbr -e 210 -c 2 -a 0 -i 12 -k AGT 
- -t 58.157113239 -s 0 -d -1 -p cbr -e 210 -c 2 -a 0 -i 12 -k AGT
h -t 58.157113239 -s 0 -d -1 -p cbr -e 210 -c 2 -a 0 -i 12 -k AGT
+ -t 58.175779905 -s 0 -d -1 -p cbr -e 210 -c 2 -a 0 -i 13 -k AGT 
- -t 58.175779905 -s 0 -d -1 -p cbr -e 210 -c 2 -a 0 -i 13 -k AGT
h -t 58.175779905 -s 0 -d -1 -p cbr -e 210 -c 2 -a 0 -i 13 -k AGT
+ -t 58.194446572 -s 0 -d -1 -p cbr -e 210 -c 2 -a 0 -i 14 -k AGT 
- -t 58.194446572 -s 0 -d -1 -p cbr -e 210 -c 2 -a 0 -i 14 -k AGT
h -t 58.194446572 -s 0 -d -1 -p cbr -e 210 -c 2 -a 0 -i 14 -k AGT
+ -t 58.213113239 -s 0 -d -1 -p cbr -e 210 -c 2 -a 0 -i 15 -k AGT 
- -t 58.213113239 -s 0 -d -1 -p cbr -e 210 -c 2 -a 0 -i 15 -k AGT
h -t 58.213113239 -s 0 -d -1 -p cbr -e 210 -c 2 -a 0 -i 15 -k AGT
+ -t 58.231779905 -s 0 -d -1 -p cbr -e 210 -c 2 -a 0 -i 16 -k AGT 
- -t 58.231779905 -s 0 -d -1 -p cbr -e 210 -c 2 -a 0 -i 16 -k AGT
h -t 58.231779905 -s 0 -d -1 -p cbr -e 210 -c 2 -a 0 -i 16 -k AGT
+ -t 58.250446572 -s 0 -d -1 -p cbr -e 210 -c 2 -a 0 -i 17 -k AGT 
- -t 58.250446572 -s 0 -d -1 -p cbr -e 210 -c 2 -a 0 -i 17 -k AGT
h -t 58.250446572 -s 0 -d -1 -p cbr -e 210 -c 2 -a 0 -i 17 -k AGT
+ -t 58.269113239 -s 0 -d -1 -p cbr -e 210 -c 2 -a 0 -i 18 -k AGT 
- -t 58.269113239 -s 0 -d -1 -p cbr -e 210 -c 2 -a 0 -i 18 -k AGT
h -t 58.269113239 -s 0 -d -1 -p cbr -e 210 -c 2 -a 0 -i 18 -k AGT
+ -t 58.287779905 -s 0 -d -1 -p cbr -e 210 -c 2 -a 0 -i 19 -k AGT 
- -t 58.287779905 -s 0 -d -1 -p cbr -e 210 -c 2 -a 0 -i 19 -k AGT
h -t 58.287779905 -s 0 -d -1 -p cbr -e 210 -c 2 -a 0 -i 19 -k AGT
+ -t 58.306446572 -s 0 -d -1 -p cbr -e 210 -c 2 -a 0 -i 20 -k AGT 
- -t 58.306446572 -s 0 -d -1 -p cbr -e 210 -c 2 -a 0 -i 20 -k AGT
h -t 58.306446572 -s 0 -d -1 -p cbr -e 210 -c 2 -a 0 -i 20 -k AGT
+ -t 58.325113239 -s 0 -d -1 -p cbr -e 210 -c 2 -a 0 -i 21 -k AGT 
- -t 58.325113239 -s 0 -d -1 -p cbr -e 210 -c 2 -a 0 -i 21 -k AGT
h -t 58.325113239 -s 0 -d -1 -p cbr -e 210 -c 2 -a 0 -i 21 -k AGT
+ -t 58.343779905 -s 0 -d -1 -p cbr -e 210 -c 2 -a 0 -i 22 -k AGT 
- -t 58.343779905 -s 0 -d -1 -p cbr -e 210 -c 2 -a 0 -i 22 -k AGT
h -t 58.343779905 -s 0 -d -1 -p cbr -e 210 -c 2 -a 0 -i 22 -k AGT
+ -t 58.362446572 -s 0 -d -1 -p cbr -e 210 -c 2 -a 0 -i 23 -k AGT 
- -t 58.362446572 -s 0 -d -1 -p cbr -e 210 -c 2 -a 0 -i 23 -k AGT
h -t 58.362446572 -s 0 -d -1 -p cbr -e 210 -c 2 -a 0 -i 23 -k AGT
+ -t 58.381113239 -s 0 -d -1 -p cbr -e 210 -c 2 -a 0 -i 24 -k AGT 
- -t 58.381113239 -s 0 -d -1 -p cbr -e 210 -c 2 -a 0 -i 24 -k AGT
h -t 58.381113239 -s 0 -d -1 -p cbr -e 210 -c 2 -a 0 -i 24 -k AGT
+ -t 58.399779905 -s 0 -d -1 -p cbr -e 210 -c 2 -a 0 -i 25 -k AGT 
- -t 58.399779905 -s 0 -d -1 -p cbr -e 210 -c 2 -a 0 -i 25 -k AGT
h -t 58.399779905 -s 0 -d -1 -p cbr -e 210 -c 2 -a 0 -i 25 -k AGT
+ -t 58.418446572 -s 0 -d -1 -p cbr -e 210 -c 2 -a 0 -i 26 -k AGT 
- -t 58.418446572 -s 0 -d -1 -p cbr -e 210 -c 2 -a 0 -i 26 -k AGT
h -t 58.418446572 -s 0 -d -1 -p cbr -e 210 -c 2 -a 0 -i 26 -k AGT
+ -t 58.437113239 -s 0 -d -1 -p cbr -e 210 -c 2 -a 0 -i 27 -k AGT 
- -t 58.437113239 -s 0 -d -1 -p cbr -e 210 -c 2 -a 0 -i 27 -k AGT
h -t 58.437113239 -s 0 -d -1 -p cbr -e 210 -c 2 -a 0 -i 27 -k AGT
+ -t 58.455779905 -s 0 -d -1 -p cbr -e 210 -c 2 -a 0 -i 28 -k AGT 
- -t 58.455779905 -s 0 -d -1 -p cbr -e 210 -c 2 -a 0 -i 28 -k AGT
h -t 58.455779905 -s 0 -d -1 -p cbr -e 210 -c 2 -a 0 -i 28 -k AGT
+ -t 58.474446572 -s 0 -d -1 -p cbr -e 210 -c 2 -a 0 -i 29 -k AGT 
- -t 58.474446572 -s 0 -d -1 -p cbr -e 210 -c 2 -a 0 -i 29 -k AGT
h -t 58.474446572 -s 0 -d -1 -p cbr -e 210 -c 2 -a 0 -i 29 -k AGT
+ -t 58.493113239 -s 0 -d -1 -p cbr -e 210 -c 2 -a 0 -i 30 -k AGT 
- -t 58.493113239 -s 0 -d -1 -p cbr -e 210 -c 2 -a 0 -i 30 -k AGT
h -t 58.493113239 -s 0 -d -1 -p cbr -e 210 -c 2 -a 0 -i 30 -k AGT
+ -t 58.511779905 -s 0 -d -1 -p cbr -e 210 -c 2 -a 0 -i 31 -k AGT 
- -t 58.511779905 -s 0 -d -1 -p cbr -e 210 -c 2 -a 0 -i 31 -k AGT
h -t 58.511779905 -s 0 -d -1 -p cbr -e 210 -c 2 -a 0 -i 31 -k AGT
+ -t 58.530446572 -s 0 -d -1 -p cbr -e 210 -c 2 -a 0 -i 32 -k AGT 
- -t 58.530446572 -s 0 -d -1 -p cbr -e 210 -c 2 -a 0 -i 32 -k AGT
h -t 58.530446572 -s 0 -d -1 -p cbr -e 210 -c 2 -a 0 -i 32 -k AGT
+ -t 58.549113239 -s 0 -d -1 -p cbr -e 210 -c 2 -a 0 -i 33 -k AGT 
- -t 58.549113239 -s 0 -d -1 -p cbr -e 210 -c 2 -a 0 -i 33 -k AGT
h -t 58.549113239 -s 0 -d -1 -p cbr -e 210 -c 2 -a 0 -i 33 -k AGT
+ -t 58.567779905 -s 0 -d -1 -p cbr -e 210 -c 2 -a 0 -i 34 -k AGT 
- -t 58.567779905 -s 0 -d -1 -p cbr -e 210 -c 2 -a 0 -i 34 -k AGT
h -t 58.567779905 -s 0 -d -1 -p cbr -e 210 -c 2 -a 0 -i 34 -k AGT
+ -t 58.586446572 -s 0 -d -1 -p cbr -e 210 -c 2 -a 0 -i 35 -k AGT 
- -t 58.586446572 -s 0 -d -1 -p cbr -e 210 -c 2 -a 0 -i 35 -k AGT
h -t 58.586446572 -s 0 -d -1 -p cbr -e 210 -c 2 -a 0 -i 35 -k AGT
+ -t 58.605113239 -s 0 -d -1 -p cbr -e 210 -c 2 -a 0 -i 36 -k AGT 
- -t 58.605113239 -s 0 -d -1 -p cbr -e 210 -c 2 -a 0 -i 36 -k AGT
h -t 58.605113239 -s 0 -d -1 -p cbr -e 210 -c 2 -a 0 -i 36 -k AGT
r -t 58.615153667 -s 10 -d 10 -p cbr -e 230 -c 2 -a 0 -i 0 -k AGT
+ -t 58.623779905 -s 0 -d -1 -p cbr -e 210 -c 2 -a 0 -i 37 -k AGT 
- -t 58.623779905 -s 0 -d -1 -p cbr -e 210 -c 2 -a 0 -i 37 -k AGT
h -t 58.623779905 -s 0 -d -1 -p cbr -e 210 -c 2 -a 0 -i 37 -k AGT
+ -t 58.642446572 -s 0 -d -1 -p cbr -e 210 -c 2 -a 0 -i 38 -k AGT 
- -t 58.642446572 -s 0 -d -1 -p cbr -e 210 -c 2 -a 0 -i 38 -k AGT
h -t 58.642446572 -s 0 -d -1 -p cbr -e 210 -c 2 -a 0 -i 38 -k AGT
+ -t 58.661113239 -s 0 -d -1 -p cbr -e 210 -c 2 -a 0 -i 39 -k AGT 
- -t 58.661113239 -s 0 -d -1 -p cbr -e 210 -c 2 -a 0 -i 39 -k AGT
h -t 58.661113239 -s 0 -d -1 -p cbr -e 210 -c 2 -a 0 -i 39 -k AGT
r -t 58.675153667 -s 10 -d 10 -p cbr -e 230 -c 2 -a 0 -i 1 -k AGT
+ -t 58.679779905 -s 0 -d -1 -p cbr -e 210 -c 2 -a 0 -i 40 -k AGT 
- -t 58.679779905 -s 0 -d -1 -p cbr -e 210 -c 2 -a 0 -i 40 -k AGT
h -t 58.679779905 -s 0 -d -1 -p cbr -e 210 -c 2 -a 0 -i 40 -k AGT
+ -t 58.698446572 -s 0 -d -1 -p cbr -e 210 -c 2 -a 0 -i 41 -k AGT 
- -t 58.698446572 -s 0 -d -1 -p cbr -e 210 -c 2 -a 0 -i 41 -k AGT
h -t 58.698446572 -s 0 -d -1 -p cbr -e 210 -c 2 -a 0 -i 41 -k AGT
+ -t 58.717113239 -s 0 -d -1 -p cbr -e 210 -c 2 -a 0 -i 42 -k AGT 
- -t 58.717113239 -s 0 -d -1 -p cbr -e 210 -c 2 -a 0 -i 42 -k AGT
h -t 58.717113239 -s 0 -d -1 -p cbr -e 210 -c 2 -a 0 -i 42 -k AGT
r -t 58.735153667 -s 10 -d 10 -p cbr -e 230 -c 2 -a 0 -i 32 -k AGT
+ -t 58.735779905 -s 0 -d -1 -p cbr -e 210 -c 2 -a 0 -i 43 -k AGT 
- -t 58.735779905 -s 0 -d -1 -p cbr -e 210 -c 2 -a 0 -i 43 -k AGT
h -t 58.735779905 -s 0 -d -1 -p cbr -e 210 -c 2 -a 0 -i 43 -k AGT
+ -t 58.754446572 -s 0 -d -1 -p cbr -e 210 -c 2 -a 0 -i 44 -k AGT 
- -t 58.754446572 -s 0 -d -1 -p cbr -e 210 -c 2 -a 0 -i 44 -k AGT
h -t 58.754446572 -s 0 -d -1 -p cbr -e 210 -c 2 -a 0 -i 44 -k AGT
+ -t 58.773113239 -s 0 -d -1 -p cbr -e 210 -c 2 -a 0 -i 45 -k AGT 
- -t 58.773113239 -s 0 -d -1 -p cbr -e 210 -c 2 -a 0 -i 45 -k AGT
h -t 58.773113239 -s 0 -d -1 -p cbr -e 210 -c 2 -a 0 -i 45 -k AGT
+ -t 58.791779905 -s 0 -d -1 -p cbr -e 210 -c 2 -a 0 -i 46 -k AGT 
- -t 58.791779905 -s 0 -d -1 -p cbr -e 210 -c 2 -a 0 -i 46 -k AGT
h -t 58.791779905 -s 0 -d -1 -p cbr -e 210 -c 2 -a 0 -i 46 -k AGT
r -t 58.795153667 -s 10 -d 10 -p cbr -e 230 -c 2 -a 0 -i 2 -k AGT
+ -t 58.810446572 -s 0 -d -1 -p cbr -e 210 -c 2 -a 0 -i 47 -k AGT 
- -t 58.810446572 -s 0 -d -1 -p cbr -e 210 -c 2 -a 0 -i 47 -k AGT
h -t 58.810446572 -s 0 -d -1 -p cbr -e 210 -c 2 -a 0 -i 47 -k AGT
+ -t 58.829113239 -s 0 -d -1 -p cbr -e 210 -c 2 -a 0 -i 48 -k AGT 
- -t 58.829113239 -s 0 -d -1 -p cbr -e 210 -c 2 -a 0 -i 48 -k AGT
h -t 58.829113239 -s 0 -d -1 -p cbr -e 210 -c 2 -a 0 -i 48 -k AGT
+ -t 58.847779905 -s 0 -d -1 -p cbr -e 210 -c 2 -a 0 -i 49 -k AGT 
- -t 58.847779905 -s 0 -d -1 -p cbr -e 210 -c 2 -a 0 -i 49 -k AGT
h -t 58.847779905 -s 0 -d -1 -p cbr -e 210 -c 2 -a 0 -i 49 -k AGT
r -t 58.855153667 -s 10 -d 10 -p cbr -e 230 -c 2 -a 0 -i 3 -k AGT
+ -t 58.866446572 -s 0 -d -1 -p cbr -e 210 -c 2 -a 0 -i 50 -k AGT 
- -t 58.866446572 -s 0 -d -1 -p cbr -e 210 -c 2 -a 0 -i 50 -k AGT
h -t 58.866446572 -s 0 -d -1 -p cbr -e 210 -c 2 -a 0 -i 50 -k AGT
+ -t 58.885113239 -s 0 -d -1 -p cbr -e 210 -c 2 -a 0 -i 51 -k AGT 
- -t 58.885113239 -s 0 -d -1 -p cbr -e 210 -c 2 -a 0 -i 51 -k AGT
h -t 58.885113239 -s 0 -d -1 -p cbr -e 210 -c 2 -a 0 -i 51 -k AGT
+ -t 58.903779905 -s 0 -d -1 -p cbr -e 210 -c 2 -a 0 -i 52 -k AGT 
- -t 58.903779905 -s 0 -d -1 -p cbr -e 210 -c 2 -a 0 -i 52 -k AGT
h -t 58.903779905 -s 0 -d -1 -p cbr -e 210 -c 2 -a 0 -i 52 -k AGT
r -t 58.915153667 -s 10 -d 10 -p cbr -e 230 -c 2 -a 0 -i 33 -k AGT
+ -t 58.922446572 -s 0 -d -1 -p cbr -e 210 -c 2 -a 0 -i 53 -k AGT 
- -t 58.922446572 -s 0 -d -1 -p cbr -e 210 -c 2 -a 0 -i 53 -k AGT
h -t 58.922446572 -s 0 -d -1 -p cbr -e 210 -c 2 -a 0 -i 53 -k AGT
+ -t 58.941113239 -s 0 -d -1 -p cbr -e 210 -c 2 -a 0 -i 54 -k AGT 
- -t 58.941113239 -s 0 -d -1 -p cbr -e 210 -c 2 -a 0 -i 54 -k AGT
h -t 58.941113239 -s 0 -d -1 -p cbr -e 210 -c 2 -a 0 -i 54 -k AGT
+ -t 58.959779905 -s 0 -d -1 -p cbr -e 210 -c 2 -a 0 -i 55 -k AGT 
- -t 58.959779905 -s 0 -d -1 -p cbr -e 210 -c 2 -a 0 -i 55 -k AGT
h -t 58.959779905 -s 0 -d -1 -p cbr -e 210 -c 2 -a 0 -i 55 -k AGT
r -t 58.975153667 -s 10 -d 10 -p cbr -e 230 -c 2 -a 0 -i 4 -k AGT
+ -t 58.978446572 -s 0 -d -1 -p cbr -e 210 -c 2 -a 0 -i 56 -k AGT 
- -t 58.978446572 -s 0 -d -1 -p cbr -e 210 -c 2 -a 0 -i 56 -k AGT
h -t 58.978446572 -s 0 -d -1 -p cbr -e 210 -c 2 -a 0 -i 56 -k AGT
+ -t 58.997113239 -s 0 -d -1 -p cbr -e 210 -c 2 -a 0 -i 57 -k AGT 
- -t 58.997113239 -s 0 -d -1 -p cbr -e 210 -c 2 -a 0 -i 57 -k AGT
h -t 58.997113239 -s 0 -d -1 -p cbr -e 210 -c 2 -a 0 -i 57 -k AGT
+ -t 59.015779905 -s 0 -d -1 -p cbr -e 210 -c 2 -a 0 -i 58 -k AGT 
- -t 59.015779905 -s 0 -d -1 -p cbr -e 210 -c 2 -a 0 -i 58 -k AGT
h -t 59.015779905 -s 0 -d -1 -p cbr -e 210 -c 2 -a 0 -i 58 -k AGT
+ -t 59.034446572 -s 0 -d -1 -p cbr -e 210 -c 2 -a 0 -i 59 -k AGT 
- -t 59.034446572 -s 0 -d -1 -p cbr -e 210 -c 2 -a 0 -i 59 -k AGT
h -t 59.034446572 -s 0 -d -1 -p cbr -e 210 -c 2 -a 0 -i 59 -k AGT
r -t 59.035153667 -s 10 -d 10 -p cbr -e 230 -c 2 -a 0 -i 5 -k AGT
+ -t 59.053113239 -s 0 -d -1 -p cbr -e 210 -c 2 -a 0 -i 60 -k AGT 
- -t 59.053113239 -s 0 -d -1 -p cbr -e 210 -c 2 -a 0 -i 60 -k AGT
h -t 59.053113239 -s 0 -d -1 -p cbr -e 210 -c 2 -a 0 -i 60 -k AGT
+ -t 59.071779905 -s 0 -d -1 -p cbr -e 210 -c 2 -a 0 -i 61 -k AGT 
- -t 59.071779905 -s 0 -d -1 -p cbr -e 210 -c 2 -a 0 -i 61 -k AGT
h -t 59.071779905 -s 0 -d -1 -p cbr -e 210 -c 2 -a 0 -i 61 -k AGT
+ -t 59.090446572 -s 0 -d -1 -p cbr -e 210 -c 2 -a 0 -i 62 -k AGT 
- -t 59.090446572 -s 0 -d -1 -p cbr -e 210 -c 2 -a 0 -i 62 -k AGT
h -t 59.090446572 -s 0 -d -1 -p cbr -e 210 -c 2 -a 0 -i 62 -k AGT
r -t 59.095153667 -s 10 -d 10 -p cbr -e 230 -c 2 -a 0 -i 34 -k AGT
+ -t 59.109113239 -s 0 -d -1 -p cbr -e 210 -c 2 -a 0 -i 63 -k AGT 
- -t 59.109113239 -s 0 -d -1 -p cbr -e 210 -c 2 -a 0 -i 63 -k AGT
h -t 59.109113239 -s 0 -d -1 -p cbr -e 210 -c 2 -a 0 -i 63 -k AGT
+ -t 59.127779905 -s 0 -d -1 -p cbr -e 210 -c 2 -a 0 -i 64 -k AGT 
- -t 59.127779905 -s 0 -d -1 -p cbr -e 210 -c 2 -a 0 -i 64 -k AGT
h -t 59.127779905 -s 0 -d -1 -p cbr -e 210 -c 2 -a 0 -i 64 -k AGT
+ -t 59.146446572 -s 0 -d -1 -p cbr -e 210 -c 2 -a 0 -i 65 -k AGT 
- -t 59.146446572 -s 0 -d -1 -p cbr -e 210 -c 2 -a 0 -i 65 -k AGT
h -t 59.146446572 -s 0 -d -1 -p cbr -e 210 -c 2 -a 0 -i 65 -k AGT
r -t 59.155153667 -s 10 -d 10 -p cbr -e 230 -c 2 -a 0 -i 6 -k AGT
+ -t 59.165113239 -s 0 -d -1 -p cbr -e 210 -c 2 -a 0 -i 66 -k AGT 
- -t 59.165113239 -s 0 -d -1 -p cbr -e 210 -c 2 -a 0 -i 66 -k AGT
h -t 59.165113239 -s 0 -d -1 -p cbr -e 210 -c 2 -a 0 -i 66 -k AGT
+ -t 59.183779905 -s 0 -d -1 -p cbr -e 210 -c 2 -a 0 -i 67 -k AGT 
- -t 59.183779905 -s 0 -d -1 -p cbr -e 210 -c 2 -a 0 -i 67 -k AGT
h -t 59.183779905 -s 0 -d -1 -p cbr -e 210 -c 2 -a 0 -i 67 -k AGT
+ -t 59.202446572 -s 0 -d -1 -p cbr -e 210 -c 2 -a 0 -i 68 -k AGT 
- -t 59.202446572 -s 0 -d -1 -p cbr -e 210 -c 2 -a 0 -i 68 -k AGT
h -t 59.202446572 -s 0 -d -1 -p cbr -e 210 -c 2 -a 0 -i 68 -k AGT
r -t 59.215153667 -s 10 -d 10 -p cbr -e 230 -c 2 -a 0 -i 7 -k AGT
+ -t 59.221113239 -s 0 -d -1 -p cbr -e 210 -c 2 -a 0 -i 69 -k AGT 
- -t 59.221113239 -s 0 -d -1 -p cbr -e 210 -c 2 -a 0 -i 69 -k AGT
h -t 59.221113239 -s 0 -d -1 -p cbr -e 210 -c 2 -a 0 -i 69 -k AGT
+ -t 59.239779905 -s 0 -d -1 -p cbr -e 210 -c 2 -a 0 -i 70 -k AGT 
- -t 59.239779905 -s 0 -d -1 -p cbr -e 210 -c 2 -a 0 -i 70 -k AGT
h -t 59.239779905 -s 0 -d -1 -p cbr -e 210 -c 2 -a 0 -i 70 -k AGT
+ -t 59.258446572 -s 0 -d -1 -p cbr -e 210 -c 2 -a 0 -i 71 -k AGT 
- -t 59.258446572 -s 0 -d -1 -p cbr -e 210 -c 2 -a 0 -i 71 -k AGT
h -t 59.258446572 -s 0 -d -1 -p cbr -e 210 -c 2 -a 0 -i 71 -k AGT
r -t 59.275153667 -s 10 -d 10 -p cbr -e 230 -c 2 -a 0 -i 35 -k AGT
+ -t 59.277113239 -s 0 -d -1 -p cbr -e 210 -c 2 -a 0 -i 72 -k AGT 
- -t 59.277113239 -s 0 -d -1 -p cbr -e 210 -c 2 -a 0 -i 72 -k AGT
h -t 59.277113239 -s 0 -d -1 -p cbr -e 210 -c 2 -a 0 -i 72 -k AGT
+ -t 59.295779905 -s 0 -d -1 -p cbr -e 210 -c 2 -a 0 -i 73 -k AGT 
- -t 59.295779905 -s 0 -d -1 -p cbr -e 210 -c 2 -a 0 -i 73 -k AGT
h -t 59.295779905 -s 0 -d -1 -p cbr -e 210 -c 2 -a 0 -i 73 -k AGT
+ -t 59.314446572 -s 0 -d -1 -p cbr -e 210 -c 2 -a 0 -i 74 -k AGT 
- -t 59.314446572 -s 0 -d -1 -p cbr -e 210 -c 2 -a 0 -i 74 -k AGT
h -t 59.314446572 -s 0 -d -1 -p cbr -e 210 -c 2 -a 0 -i 74 -k AGT
+ -t 59.333113239 -s 0 -d -1 -p cbr -e 210 -c 2 -a 0 -i 75 -k AGT 
- -t 59.333113239 -s 0 -d -1 -p cbr -e 210 -c 2 -a 0 -i 75 -k AGT
h -t 59.333113239 -s 0 -d -1 -p cbr -e 210 -c 2 -a 0 -i 75 -k AGT
r -t 59.335153667 -s 10 -d 10 -p cbr -e 230 -c 2 -a 0 -i 8 -k AGT
+ -t 59.351779905 -s 0 -d -1 -p cbr -e 210 -c 2 -a 0 -i 76 -k AGT 
- -t 59.351779905 -s 0 -d -1 -p cbr -e 210 -c 2 -a 0 -i 76 -k AGT
h -t 59.351779905 -s 0 -d -1 -p cbr -e 210 -c 2 -a 0 -i 76 -k AGT
+ -t 59.370446572 -s 0 -d -1 -p cbr -e 210 -c 2 -a 0 -i 77 -k AGT 
- -t 59.370446572 -s 0 -d -1 -p cbr -e 210 -c 2 -a 0 -i 77 -k AGT
h -t 59.370446572 -s 0 -d -1 -p cbr -e 210 -c 2 -a 0 -i 77 -k AGT
+ -t 59.389113239 -s 0 -d -1 -p cbr -e 210 -c 2 -a 0 -i 78 -k AGT 
- -t 59.389113239 -s 0 -d -1 -p cbr -e 210 -c 2 -a 0 -i 78 -k AGT
h -t 59.389113239 -s 0 -d -1 -p cbr -e 210 -c 2 -a 0 -i 78 -k AGT
r -t 59.395153667 -s 10 -d 10 -p cbr -e 230 -c 2 -a 0 -i 9 -k AGT
+ -t 59.407779905 -s 0 -d -1 -p cbr -e 210 -c 2 -a 0 -i 79 -k AGT 
- -t 59.407779905 -s 0 -d -1 -p cbr -e 210 -c 2 -a 0 -i 79 -k AGT
h -t 59.407779905 -s 0 -d -1 -p cbr -e 210 -c 2 -a 0 -i 79 -k AGT
+ -t 59.426446572 -s 0 -d -1 -p cbr -e 210 -c 2 -a 0 -i 80 -k AGT 
- -t 59.426446572 -s 0 -d -1 -p cbr -e 210 -c 2 -a 0 -i 80 -k AGT
h -t 59.426446572 -s 0 -d -1 -p cbr -e 210 -c 2 -a 0 -i 80 -k AGT
+ -t 59.445113239 -s 0 -d -1 -p cbr -e 210 -c 2 -a 0 -i 81 -k AGT 
- -t 59.445113239 -s 0 -d -1 -p cbr -e 210 -c 2 -a 0 -i 81 -k AGT
h -t 59.445113239 -s 0 -d -1 -p cbr -e 210 -c 2 -a 0 -i 81 -k AGT
r -t 59.455153667 -s 10 -d 10 -p cbr -e 230 -c 2 -a 0 -i 36 -k AGT
+ -t 59.463779905 -s 0 -d -1 -p cbr -e 210 -c 2 -a 0 -i 82 -k AGT 
- -t 59.463779905 -s 0 -d -1 -p cbr -e 210 -c 2 -a 0 -i 82 -k AGT
h -t 59.463779905 -s 0 -d -1 -p cbr -e 210 -c 2 -a 0 -i 82 -k AGT
+ -t 59.482446572 -s 0 -d -1 -p cbr -e 210 -c 2 -a 0 -i 83 -k AGT 
- -t 59.482446572 -s 0 -d -1 -p cbr -e 210 -c 2 -a 0 -i 83 -k AGT
h -t 59.482446572 -s 0 -d -1 -p cbr -e 210 -c 2 -a 0 -i 83 -k AGT
+ -t 59.501113239 -s 0 -d -1 -p cbr -e 210 -c 2 -a 0 -i 84 -k AGT 
- -t 59.501113239 -s 0 -d -1 -p cbr -e 210 -c 2 -a 0 -i 84 -k AGT
h -t 59.501113239 -s 0 -d -1 -p cbr -e 210 -c 2 -a 0 -i 84 -k AGT
r -t 59.515153667 -s 10 -d 10 -p cbr -e 230 -c 2 -a 0 -i 10 -k AGT
+ -t 59.519779905 -s 0 -d -1 -p cbr -e 210 -c 2 -a 0 -i 85 -k AGT 
- -t 59.519779905 -s 0 -d -1 -p cbr -e 210 -c 2 -a 0 -i 85 -k AGT
h -t 59.519779905 -s 0 -d -1 -p cbr -e 210 -c 2 -a 0 -i 85 -k AGT
+ -t 59.538446572 -s 0 -d -1 -p cbr -e 210 -c 2 -a 0 -i 86 -k AGT 
- -t 59.538446572 -s 0 -d -1 -p cbr -e 210 -c 2 -a 0 -i 86 -k AGT
h -t 59.538446572 -s 0 -d -1 -p cbr -e 210 -c 2 -a 0 -i 86 -k AGT
+ -t 59.557113239 -s 0 -d -1 -p cbr -e 210 -c 2 -a 0 -i 87 -k AGT 
- -t 59.557113239 -s 0 -d -1 -p cbr -e 210 -c 2 -a 0 -i 87 -k AGT
h -t 59.557113239 -s 0 -d -1 -p cbr -e 210 -c 2 -a 0 -i 87 -k AGT
r -t 59.575153667 -s 10 -d 10 -p cbr -e 230 -c 2 -a 0 -i 11 -k AGT
+ -t 59.575779905 -s 0 -d -1 -p cbr -e 210 -c 2 -a 0 -i 88 -k AGT 
- -t 59.575779905 -s 0 -d -1 -p cbr -e 210 -c 2 -a 0 -i 88 -k AGT
h -t 59.575779905 -s 0 -d -1 -p cbr -e 210 -c 2 -a 0 -i 88 -k AGT
+ -t 59.594446572 -s 0 -d -1 -p cbr -e 210 -c 2 -a 0 -i 89 -k AGT 
- -t 59.594446572 -s 0 -d -1 -p cbr -e 210 -c 2 -a 0 -i 89 -k AGT
h -t 59.594446572 -s 0 -d -1 -p cbr -e 210 -c 2 -a 0 -i 89 -k AGT
+ -t 59.613113239 -s 0 -d -1 -p cbr -e 210 -c 2 -a 0 -i 90 -k AGT 
- -t 59.613113239 -s 0 -d -1 -p cbr -e 210 -c 2 -a 0 -i 90 -k AGT
h -t 59.613113239 -s 0 -d -1 -p cbr -e 210 -c 2 -a 0 -i 90 -k AGT
+ -t 59.631779905 -s 0 -d -1 -p cbr -e 210 -c 2 -a 0 -i 91 -k AGT 
- -t 59.631779905 -s 0 -d -1 -p cbr -e 210 -c 2 -a 0 -i 91 -k AGT
h -t 59.631779905 -s 0 -d -1 -p cbr -e 210 -c 2 -a 0 -i 91 -k AGT
r -t 59.635153667 -s 10 -d 10 -p cbr -e 230 -c 2 -a 0 -i 37 -k AGT
+ -t 59.650446572 -s 0 -d -1 -p cbr -e 210 -c 2 -a 0 -i 92 -k AGT 
- -t 59.650446572 -s 0 -d -1 -p cbr -e 210 -c 2 -a 0 -i 92 -k AGT
h -t 59.650446572 -s 0 -d -1 -p cbr -e 210 -c 2 -a 0 -i 92 -k AGT
+ -t 59.669113239 -s 0 -d -1 -p cbr -e 210 -c 2 -a 0 -i 93 -k AGT 
- -t 59.669113239 -s 0 -d -1 -p cbr -e 210 -c 2 -a 0 -i 93 -k AGT
h -t 59.669113239 -s 0 -d -1 -p cbr -e 210 -c 2 -a 0 -i 93 -k AGT
+ -t 59.687779905 -s 0 -d -1 -p cbr -e 210 -c 2 -a 0 -i 94 -k AGT 
- -t 59.687779905 -s 0 -d -1 -p cbr -e 210 -c 2 -a 0 -i 94 -k AGT
h -t 59.687779905 -s 0 -d -1 -p cbr -e 210 -c 2 -a 0 -i 94 -k AGT
r -t 59.695153667 -s 10 -d 10 -p cbr -e 230 -c 2 -a 0 -i 12 -k AGT
+ -t 59.706446572 -s 0 -d -1 -p cbr -e 210 -c 2 -a 0 -i 95 -k AGT 
- -t 59.706446572 -s 0 -d -1 -p cbr -e 210 -c 2 -a 0 -i 95 -k AGT
h -t 59.706446572 -s 0 -d -1 -p cbr -e 210 -c 2 -a 0 -i 95 -k AGT
+ -t 59.725113239 -s 0 -d -1 -p cbr -e 210 -c 2 -a 0 -i 96 -k AGT 
- -t 59.725113239 -s 0 -d -1 -p cbr -e 210 -c 2 -a 0 -i 96 -k AGT
h -t 59.725113239 -s 0 -d -1 -p cbr -e 210 -c 2 -a 0 -i 96 -k AGT
+ -t 59.743779905 -s 0 -d -1 -p cbr -e 210 -c 2 -a 0 -i 97 -k AGT 
- -t 59.743779905 -s 0 -d -1 -p cbr -e 210 -c 2 -a 0 -i 97 -k AGT
h -t 59.743779905 -s 0 -d -1 -p cbr -e 210 -c 2 -a 0 -i 97 -k AGT
r -t 59.755153667 -s 10 -d 10 -p cbr -e 230 -c 2 -a 0 -i 38 -k AGT
+ -t 59.762446572 -s 0 -d -1 -p cbr -e 210 -c 2 -a 0 -i 98 -k AGT 
- -t 59.762446572 -s 0 -d -1 -p cbr -e 210 -c 2 -a 0 -i 98 -k AGT
h -t 59.762446572 -s 0 -d -1 -p cbr -e 210 -c 2 -a 0 -i 98 -k AGT
+ -t 59.781113239 -s 0 -d -1 -p cbr -e 210 -c 2 -a 0 -i 99 -k AGT 
- -t 59.781113239 -s 0 -d -1 -p cbr -e 210 -c 2 -a 0 -i 99 -k AGT
h -t 59.781113239 -s 0 -d -1 -p cbr -e 210 -c 2 -a 0 -i 99 -k AGT
+ -t 59.799779905 -s 0 -d -1 -p cbr -e 210 -c 2 -a 0 -i 100 -k AGT 
- -t 59.799779905 -s 0 -d -1 -p cbr -e 210 -c 2 -a 0 -i 100 -k AGT
h -t 59.799779905 -s 0 -d -1 -p cbr -e 210 -c 2 -a 0 -i 100 -k AGT
r -t 59.815153667 -s 10 -d 10 -p cbr -e 230 -c 2 -a 0 -i 13 -k AGT
+ -t 59.818446572 -s 0 -d -1 -p cbr -e 210 -c 2 -a 0 -i 101 -k AGT 
- -t 59.818446572 -s 0 -d -1 -p cbr -e 210 -c 2 -a 0 -i 101 -k AGT
h -t 59.818446572 -s 0 -d -1 -p cbr -e 210 -c 2 -a 0 -i 101 -k AGT
+ -t 59.837113239 -s 0 -d -1 -p cbr -e 210 -c 2 -a 0 -i 102 -k AGT 
- -t 59.837113239 -s 0 -d -1 -p cbr -e 210 -c 2 -a 0 -i 102 -k AGT
h -t 59.837113239 -s 0 -d -1 -p cbr -e 210 -c 2 -a 0 -i 102 -k AGT
+ -t 59.855779905 -s 0 -d -1 -p cbr -e 210 -c 2 -a 0 -i 103 -k AGT 
- -t 59.855779905 -s 0 -d -1 -p cbr -e 210 -c 2 -a 0 -i 103 -k AGT
h -t 59.855779905 -s 0 -d -1 -p cbr -e 210 -c 2 -a 0 -i 103 -k AGT
+ -t 59.874446572 -s 0 -d -1 -p cbr -e 210 -c 2 -a 0 -i 104 -k AGT 
- -t 59.874446572 -s 0 -d -1 -p cbr -e 210 -c 2 -a 0 -i 104 -k AGT
h -t 59.874446572 -s 0 -d -1 -p cbr -e 210 -c 2 -a 0 -i 104 -k AGT
r -t 59.875153667 -s 10 -d 10 -p cbr -e 230 -c 2 -a 0 -i 14 -k AGT
+ -t 59.893113239 -s 0 -d -1 -p cbr -e 210 -c 2 -a 0 -i 105 -k AGT 
- -t 59.893113239 -s 0 -d -1 -p cbr -e 210 -c 2 -a 0 -i 105 -k AGT
h -t 59.893113239 -s 0 -d -1 -p cbr -e 210 -c 2 -a 0 -i 105 -k AGT
+ -t 59.911779905 -s 0 -d -1 -p cbr -e 210 -c 2 -a 0 -i 106 -k AGT 
- -t 59.911779905 -s 0 -d -1 -p cbr -e 210 -c 2 -a 0 -i 106 -k AGT
h -t 59.911779905 -s 0 -d -1 -p cbr -e 210 -c 2 -a 0 -i 106 -k AGT
+ -t 59.930446572 -s 0 -d -1 -p cbr -e 210 -c 2 -a 0 -i 107 -k AGT 
- -t 59.930446572 -s 0 -d -1 -p cbr -e 210 -c 2 -a 0 -i 107 -k AGT
h -t 59.930446572 -s 0 -d -1 -p cbr -e 210 -c 2 -a 0 -i 107 -k AGT
r -t 59.935153667 -s 10 -d 10 -p cbr -e 230 -c 2 -a 0 -i 39 -k AGT
+ -t 59.949113239 -s 0 -d -1 -p cbr -e 210 -c 2 -a 0 -i 108 -k AGT 
- -t 59.949113239 -s 0 -d -1 -p cbr -e 210 -c 2 -a 0 -i 108 -k AGT
h -t 59.949113239 -s 0 -d -1 -p cbr -e 210 -c 2 -a 0 -i 108 -k AGT
+ -t 59.967779905 -s 0 -d -1 -p cbr -e 210 -c 2 -a 0 -i 109 -k AGT 
- -t 59.967779905 -s 0 -d -1 -p cbr -e 210 -c 2 -a 0 -i 109 -k AGT
h -t 59.967779905 -s 0 -d -1 -p cbr -e 210 -c 2 -a 0 -i 109 -k AGT
+ -t 59.986446572 -s 0 -d -1 -p cbr -e 210 -c 2 -a 0 -i 110 -k AGT 
- -t 59.986446572 -s 0 -d -1 -p cbr -e 210 -c 2 -a 0 -i 110 -k AGT
h -t 59.986446572 -s 0 -d -1 -p cbr -e 210 -c 2 -a 0 -i 110 -k AGT
r -t 59.995153667 -s 10 -d 10 -p cbr -e 230 -c 2 -a 0 -i 15 -k AGT
+ -t 60.005113239 -s 0 -d -1 -p cbr -e 210 -c 2 -a 0 -i 111 -k AGT 
- -t 60.005113239 -s 0 -d -1 -p cbr -e 210 -c 2 -a 0 -i 111 -k AGT
h -t 60.005113239 -s 0 -d -1 -p cbr -e 210 -c 2 -a 0 -i 111 -k AGT
+ -t 60.023779905 -s 0 -d -1 -p cbr -e 210 -c 2 -a 0 -i 112 -k AGT 
- -t 60.023779905 -s 0 -d -1 -p cbr -e 210 -c 2 -a 0 -i 112 -k AGT
h -t 60.023779905 -s 0 -d -1 -p cbr -e 210 -c 2 -a 0 -i 112 -k AGT
+ -t 60.042446572 -s 0 -d -1 -p cbr -e 210 -c 2 -a 0 -i 113 -k AGT 
- -t 60.042446572 -s 0 -d -1 -p cbr -e 210 -c 2 -a 0 -i 113 -k AGT
h -t 60.042446572 -s 0 -d -1 -p cbr -e 210 -c 2 -a 0 -i 113 -k AGT
r -t 60.055153667 -s 10 -d 10 -p cbr -e 230 -c 2 -a 0 -i 16 -k AGT
+ -t 60.061113239 -s 0 -d -1 -p cbr -e 210 -c 2 -a 0 -i 114 -k AGT 
- -t 60.061113239 -s 0 -d -1 -p cbr -e 210 -c 2 -a 0 -i 114 -k AGT
h -t 60.061113239 -s 0 -d -1 -p cbr -e 210 -c 2 -a 0 -i 114 -k AGT
+ -t 60.079779905 -s 0 -d -1 -p cbr -e 210 -c 2 -a 0 -i 115 -k AGT 
- -t 60.079779905 -s 0 -d -1 -p cbr -e 210 -c 2 -a 0 -i 115 -k AGT
h -t 60.079779905 -s 0 -d -1 -p cbr -e 210 -c 2 -a 0 -i 115 -k AGT
+ -t 60.098446572 -s 0 -d -1 -p cbr -e 210 -c 2 -a 0 -i 116 -k AGT 
- -t 60.098446572 -s 0 -d -1 -p cbr -e 210 -c 2 -a 0 -i 116 -k AGT
h -t 60.098446572 -s 0 -d -1 -p cbr -e 210 -c 2 -a 0 -i 116 -k AGT
r -t 60.115153667 -s 10 -d 10 -p cbr -e 230 -c 2 -a 0 -i 40 -k AGT
+ -t 60.117113239 -s 0 -d -1 -p cbr -e 210 -c 2 -a 0 -i 117 -k AGT 
- -t 60.117113239 -s 0 -d -1 -p cbr -e 210 -c 2 -a 0 -i 117 -k AGT
h -t 60.117113239 -s 0 -d -1 -p cbr -e 210 -c 2 -a 0 -i 117 -k AGT
+ -t 60.135779905 -s 0 -d -1 -p cbr -e 210 -c 2 -a 0 -i 118 -k AGT 
- -t 60.135779905 -s 0 -d -1 -p cbr -e 210 -c 2 -a 0 -i 118 -k AGT
h -t 60.135779905 -s 0 -d -1 -p cbr -e 210 -c 2 -a 0 -i 118 -k AGT
+ -t 60.154446572 -s 0 -d -1 -p cbr -e 210 -c 2 -a 0 -i 119 -k AGT 
- -t 60.154446572 -s 0 -d -1 -p cbr -e 210 -c 2 -a 0 -i 119 -k AGT
h -t 60.154446572 -s 0 -d -1 -p cbr -e 210 -c 2 -a 0 -i 119 -k AGT
+ -t 60.173113239 -s 0 -d -1 -p cbr -e 210 -c 2 -a 0 -i 120 -k AGT 
- -t 60.173113239 -s 0 -d -1 -p cbr -e 210 -c 2 -a 0 -i 120 -k AGT
h -t 60.173113239 -s 0 -d -1 -p cbr -e 210 -c 2 -a 0 -i 120 -k AGT
r -t 60.175153667 -s 10 -d 10 -p cbr -e 230 -c 2 -a 0 -i 17 -k AGT
+ -t 60.191779905 -s 0 -d -1 -p cbr -e 210 -c 2 -a 0 -i 121 -k AGT 
- -t 60.191779905 -s 0 -d -1 -p cbr -e 210 -c 2 -a 0 -i 121 -k AGT
h -t 60.191779905 -s 0 -d -1 -p cbr -e 210 -c 2 -a 0 -i 121 -k AGT
+ -t 60.210446572 -s 0 -d -1 -p cbr -e 210 -c 2 -a 0 -i 122 -k AGT 
- -t 60.210446572 -s 0 -d -1 -p cbr -e 210 -c 2 -a 0 -i 122 -k AGT
h -t 60.210446572 -s 0 -d -1 -p cbr -e 210 -c 2 -a 0 -i 122 -k AGT
+ -t 60.229113239 -s 0 -d -1 -p cbr -e 210 -c 2 -a 0 -i 123 -k AGT 
- -t 60.229113239 -s 0 -d -1 -p cbr -e 210 -c 2 -a 0 -i 123 -k AGT
h -t 60.229113239 -s 0 -d -1 -p cbr -e 210 -c 2 -a 0 -i 123 -k AGT
r -t 60.235153667 -s 10 -d 10 -p cbr -e 230 -c 2 -a 0 -i 18 -k AGT
+ -t 60.247779905 -s 0 -d -1 -p cbr -e 210 -c 2 -a 0 -i 124 -k AGT 
- -t 60.247779905 -s 0 -d -1 -p cbr -e 210 -c 2 -a 0 -i 124 -k AGT
h -t 60.247779905 -s 0 -d -1 -p cbr -e 210 -c 2 -a 0 -i 124 -k AGT
+ -t 60.266446572 -s 0 -d -1 -p cbr -e 210 -c 2 -a 0 -i 125 -k AGT 
- -t 60.266446572 -s 0 -d -1 -p cbr -e 210 -c 2 -a 0 -i 125 -k AGT
h -t 60.266446572 -s 0 -d -1 -p cbr -e 210 -c 2 -a 0 -i 125 -k AGT
+ -t 60.285113239 -s 0 -d -1 -p cbr -e 210 -c 2 -a 0 -i 126 -k AGT 
- -t 60.285113239 -s 0 -d -1 -p cbr -e 210 -c 2 -a 0 -i 126 -k AGT
h -t 60.285113239 -s 0 -d -1 -p cbr -e 210 -c 2 -a 0 -i 126 -k AGT
r -t 60.295153667 -s 10 -d 10 -p cbr -e 230 -c 2 -a 0 -i 41 -k AGT
+ -t 60.303779905 -s 0 -d -1 -p cbr -e 210 -c 2 -a 0 -i 127 -k AGT 
- -t 60.303779905 -s 0 -d -1 -p cbr -e 210 -c 2 -a 0 -i 127 -k AGT
h -t 60.303779905 -s 0 -d -1 -p cbr -e 210 -c 2 -a 0 -i 127 -k AGT
+ -t 60.322446572 -s 0 -d -1 -p cbr -e 210 -c 2 -a 0 -i 128 -k AGT 
- -t 60.322446572 -s 0 -d -1 -p cbr -e 210 -c 2 -a 0 -i 128 -k AGT
h -t 60.322446572 -s 0 -d -1 -p cbr -e 210 -c 2 -a 0 -i 128 -k AGT
+ -t 60.341113239 -s 0 -d -1 -p cbr -e 210 -c 2 -a 0 -i 129 -k AGT 
- -t 60.341113239 -s 0 -d -1 -p cbr -e 210 -c 2 -a 0 -i 129 -k AGT
h -t 60.341113239 -s 0 -d -1 -p cbr -e 210 -c 2 -a 0 -i 129 -k AGT
r -t 60.355153667 -s 10 -d 10 -p cbr -e 230 -c 2 -a 0 -i 19 -k AGT
+ -t 60.359779905 -s 0 -d -1 -p cbr -e 210 -c 2 -a 0 -i 130 -k AGT 
- -t 60.359779905 -s 0 -d -1 -p cbr -e 210 -c 2 -a 0 -i 130 -k AGT
h -t 60.359779905 -s 0 -d -1 -p cbr -e 210 -c 2 -a 0 -i 130 -k AGT
d -t 60.359804905 -s 0 -d 5 -p cbr -e 230 -c 2 -a 0 -i 130 -k IFQ
+ -t 60.378446572 -s 0 -d -1 -p cbr -e 210 -c 2 -a 0 -i 131 -k AGT 
- -t 60.378446572 -s 0 -d -1 -p cbr -e 210 -c 2 -a 0 -i 131 -k AGT
h -t 60.378446572 -s 0 -d -1 -p cbr -e 210 -c 2 -a 0 -i 131 -k AGT