s 14.419142210 _23_ AGT  --- 3 0 cbr 210 [0 0 0 0] ------- [23:0 1:0 32 0] [0] 0 0
s 14.437808877 _23_ AGT  --- 3 1 cbr 210 [0 0 0 0] ------- [23:0 1:0 32 0] [1] 0 0
s 14.456475543 _23_ AGT  --- 3 2 cbr 210 [0 0 0 0] ------- [23:0 1:0 32 0] [2] 0 0
s 14.475142210 _23_ AGT  --- 3 3 cbr 210 [0 0 0 0] ------- [23:0 1:0 32 0] [3] 0 0
s 14.493808877 _23_ AGT  --- 3 4 cbr 210 [0 0 0 0] ------- [23:0 1:0 32 0] [4] 0 0
s 14.512475543 _23_ AGT  --- 3 5 cbr 210 [0 0 0 0] ------- [23:0 1:0 32 0] [5] 0 0
s 14.531142210 _23_ AGT  --- 3 6 cbr 210 [0 0 0 0] ------- [23:0 1:0 32 0] [6] 0 0
s 14.549808877 _23_ AGT  --- 3 7 cbr 210 [0 0 0 0] ------- [23:0 1:0 32 0] [7] 0 0
s 14.568475543 _23_ AGT  --- 3 8 cbr 210 [0 0 0 0] ------- [23:0 1:0 32 0] [8] 0 0
s 14.587142210 _23_ AGT  --- 3 9 cbr 210 [0 0 0 0] ------- [23:0 1:0 32 0] [9] 0 0
s 14.605808877 _23_ AGT  --- 3 10 cbr 210 [0 0 0 0] ------- [23:0 1:0 32 0] [10] 0 0
s 14.624475543 _23_ AGT  --- 3 11 cbr 210 [0 0 0 0] ------- [23:0 1:0 32 0] [11] 0 0
s 14.643142210 _23_ AGT  --- 3 12 cbr 210 [0 0 0 0] ------- [23:0 1:0 32 0] [12] 0 0
s 14.661808877 _23_ AGT  --- 3 13 cbr 210 [0 0 0 0] ------- [23:0 1:0 32 0] [13] 0 0
s 14.680475543 _23_ AGT  --- 3 14 cbr 210 [0 0 0 0] ------- [23:0 1:0 32 0] [14] 0 0
s 14.699142210 _23_ AGT  --- 3 15 cbr 210 [0 0 0 0] ------- [23:0 1:0 32 0] [15] 0 0
s 14.717808877 _23_ AGT  --- 3 16 cbr 210 [0 0 0 0] ------- [23:0 1:0 32 0] [16] 0 0
s 14.736475543 _23_ AGT  --- 3 17 cbr 210 [0 0 0 0] ------- [23:0 1:0 32 0] [17] 0 0
s 14.755142210 _23_ AGT  --- 3 18 cbr 210 [0 0 0 0] ------- [23:0 1:0 32 0] [18] 0 0
s 14.773808877 _23_ AGT  --- 3 19 cbr 210 [0 0 0 0] ------- [23:0 1:0 32 0] [19] 0 0
s 14.792475543 _23_ AGT  --- 3 20 cbr 210 [0 0 0 0] ------- [23:0 1:0 32 0] [20] 0 0
s 14.811142210 _23_ AGT  --- 3 21 cbr 210 [0 0 0 0] ------- [23:0 1:0 32 0] [21] 0 0
s 14.829808877 _23_ AGT  --- 3 22 cbr 210 [0 0 0 0] ------- [23:0 1:0 32 0] [22] 0 0
s 14.848475543 _23_ AGT  --- 3 23 cbr 210 [0 0 0 0] ------- [23:0 1:0 32 0] [23] 0 0
s 14.867142210 _23_ AGT  --- 3 24 cbr 210 [0 0 0 0] ------- [23:0 1:0 32 0] [24] 0 0
s 14.885808877 _23_ AGT  --- 3 25 cbr 210 [0 0 0 0] ------- [23:0 1:0 32 0] [25] 0 0
s 14.904475543 _23_ AGT  --- 3 26 cbr 210 [0 0 0 0] ------- [23:0 1:0 32 0] [26] 0 0
s 14.923142210 _23_ AGT  --- 3 27 cbr 210 [0 0 0 0] ------- [23:0 1:0 32 0] [27] 0 0
s 14.941808877 _23_ AGT  --- 3 28 cbr 210 [0 0 0 0] ------- [23:0 1:0 32 0] [28] 0 0
s 14.960475543 _23_ AGT  --- 3 29 cbr 210 [0 0 0 0] ------- [23:0 1:0 32 0] [29] 0 0
s 14.979142210 _23_ AGT  --- 3 30 cbr 210 [0 0 0 0] ------- [23:0 1:0 32 0] [30] 0 0
s 14.997808877 _23_ AGT  --- 3 31 cbr 210 [0 0 0 0] ------- [23:0 1:0 32 0] [31] 0 0
s 15.016475543 _23_ AGT  --- 3 32 cbr 210 [0 0 0 0] ------- [23:0 1:0 32 0] [32] 0 0
s 15.035142210 _23_ AGT  --- 3 33 cbr 210 [0 0 0 0] ------- [23:0 1:0 32 0] [33] 0 0
s 15.053808877 _23_ AGT  --- 3 34 cbr 210 [0 0 0 0] ------- [23:0 1:0 32 0] [34] 0 0
s 15.072475543 _23_ AGT  --- 3 35 cbr 210 [0 0 0 0] ------- [23:0 1:0 32 0] [35] 0 0
s 15.091142210 _23_ AGT  --- 3 36 cbr 210 [0 0 0 0] ------- [23:0 1:0 32 0] [36] 0 0
s 15.109808877 _23_ AGT  --- 3 37 cbr 210 [0 0 0 0] ------- [23:0 1:0 32 0] [37] 0 0
s 15.128475543 _23_ AGT  --- 3 38 cbr 210 [0 0 0 0] ------- [23:0 1:0 32 0] [38] 0 0
s 15.147142210 _23_ AGT  --- 3 39 cbr 210 [0 0 0 0] ------- [23:0 1:0 32 0] [39] 0 0
s 15.165808877 _23_ AGT  --- 3 40 cbr 210 [0 0 0 0] ------- [23:0 1:0 32 0] [40] 0 0
s 15.184475543 _23_ AGT  --- 3 41 cbr 210 [0 0 0 0] ------- [23:0 1:0 32 0] [41] 0 0
s 15.203142210 _23_ AGT  --- 3 42 cbr 210 [0 0 0 0] ------- [23:0 1:0 32 0] [42] 0 0
s 15.221808877 _23_ AGT  --- 3 43 cbr 210 [0 0 0 0] ------- [23:0 1:0 32 0] [43] 0 0
s 15.240475543 _23_ AGT  --- 3 44 cbr 210 [0 0 0 0] ------- [23:0 1:0 32 0] [44] 0 0
s 15.259142210 _23_ AGT  --- 3 45 cbr 210 [0 0 0 0] ------- [23:0 1:0 32 0] [45] 0 0
s 15.277808877 _23_ AGT  --- 3 46 cbr 210 [0 0 0 0] ------- [23:0 1:0 32 0] [46] 0 0
s 15.296475543 _23_ AGT  --- 3 47 cbr 210 [0 0 0 0] ------- [23:0 1:0 32 0] [47] 0 0
s 15.315142210 _23_ AGT  --- 3 48 cbr 210 [0 0 0 0] ------- [23:0 1:0 32 0] [48] 0 0
s 15.333808877 _23_ AGT  --- 3 49 cbr 210 [0 0 0 0] ------- [23:0 1:0 32 0] [49] 0 0
s 15.352475543 _23_ AGT  --- 3 50 cbr 210 [0 0 0 0] ------- [23:0 1:0 32 0] [50] 0 0
s 15.371142210 _23_ AGT  --- 3 51 cbr 210 [0 0 0 0] ------- [23:0 1:0 32 0] [51] 0 0
s 15.389808877 _23_ AGT  --- 3 52 cbr 210 [0 0 0 0] ------- [23:0 1:0 32 0] [52] 0 0
s 15.408475543 _23_ AGT  --- 3 53 cbr 210 [0 0 0 0] ------- [23:0 1:0 32 0] [53] 0 0
s 15.427142210 _23_ AGT  --- 3 54 cbr 210 [0 0 0 0] ------- [23:0 1:0 32 0] [54] 0 0
s 15.445808877 _23_ AGT  --- 3 55 cbr 210 [0 0 0 0] ------- [23:0 1:0 32 0] [55] 0 0
s 15.464475543 _23_ AGT  --- 3 56 cbr 210 [0 0 0 0] ------- [23:0 1:0 32 0] [56] 0 0
s 15.483142210 _23_ AGT  --- 3 57 cbr 210 [0 0 0 0] ------- [23:0 1:0 32 0] [57] 0 0
s 15.501808877 _23_ AGT  --- 3 58 cbr 210 [0 0 0 0] ------- [23:0 1:0 32 0] [58] 0 0
s 15.520475543 _23_ AGT  --- 3 59 cbr 210 [0 0 0 0] ------- [23:0 1:0 32 0] [59] 0 0
s 15.539142210 _23_ AGT  --- 3 60 cbr 210 [0 0 0 0] ------- [23:0 1:0 32 0] [60] 0 0
s 15.557808877 _23_ AGT  --- 3 61 cbr 210 [0 0 0 0] ------- [23:0 1:0 32 0] [61] 0 0
s 15.576475543 _23_ AGT  --- 3 62 cbr 210 [0 0 0 0] ------- [23:0 1:0 32 0] [62] 0 0
s 15.595142210 _23_ AGT  --- 3 63 cbr 210 [0 0 0 0] ------- [23:0 1:0 32 0] [63] 0 0
s 15.613808877 _23_ AGT  --- 3 64 cbr 210 [0 0 0 0] ------- [23:0 1:0 32 0] [64] 0 0
D 15.613808877 _23_ RTR  IFQ 3 0 cbr 230 [0 0 0 0] ------- [23:0 1:0 30 0] [0] 0 0
s 15.632475543 _23_ AGT  --- 3 65 cbr 210 [0 0 0 0] ------- [23:0 1:0 32 0] [65] 0 0
D 15.632475543 _23_ RTR  IFQ 3 1 cbr 230 [0 0 0 0] ------- [23:0 1:0 30 0] [1] 0 0
s 15.651142210 _23_ AGT  --- 3 66 cbr 210 [0 0 0 0] ------- [23:0 1:0 32 0] [66] 0 0
D 15.651142210 _23_ RTR  IFQ 3 2 cbr 230 [0 0 0 0] ------- [23:0 1:0 30 0] [2] 0 0
s 15.669808877 _23_ AGT  --- 3 67 cbr 210 [0 0 0 0] ------- [23:0 1:0 32 0] [67] 0 0
D 15.669808877 _23_ RTR  IFQ 3 3 cbr 230 [0 0 0 0] ------- [23:0 1:0 30 0] [3] 0 0
s 15.688475543 _23_ AGT  --- 3 68 cbr 210 [0 0 0 0] ------- [23:0 1:0 32 0] [68] 0 0
D 15.688475543 _23_ RTR  IFQ 3 4 cbr 230 [0 0 0 0] ------- [23:0 1:0 30 0] [4] 0 0
s 15.707142210 _23_ AGT  --- 3 69 cbr 210 [0 0 0 0] ------- [23:0 1:0 32 0] [69] 0 0
D 15.707142210 _23_ RTR  IFQ 3 5 cbr 230 [0 0 0 0] ------- [23:0 1:0 30 0] [5] 0 0
s 15.725808877 _23_ AGT  --- 3 70 cbr 210 [0 0 0 0] ------- [23:0 1:0 32 0] [70] 0 0
D 15.725808877 _23_ RTR  IFQ 3 6 cbr 230 [0 0 0 0] ------- [23:0 1:0 30 0] [6] 0 0
s 15.744475543 _23_ AGT  --- 3 71 cbr 210 [0 0 0 0] ------- [23:0 1:0 32 0] [71] 0 0
D 15.744475543 _23_ RTR  IFQ 3 7 cbr 230 [0 0 0 0] ------- [23:0 1:0 30 0] [7] 0 0
s 15.763142210 _23_ AGT  --- 3 72 cbr 210 [0 0 0 0] ------- [23:0 1:0 32 0] [72] 0 0
D 15.763142210 _23_ RTR  IFQ 3 8 cbr 230 [0 0 0 0] ------- [23:0 1:0 30 0] [8] 0 0
s 15.781808877 _23_ AGT  --- 3 73 cbr 210 [0 0 0 0] ------- [23:0 1:0 32 0] [73] 0 0
D 15.781808877 _23_ RTR  IFQ 3 9 cbr 230 [0 0 0 0] ------- [23:0 1:0 30 0] [9] 0 0
s 15.800475543 _23_ AGT  --- 3 74 cbr 210 [0 0 0 0] ------- [23:0 1:0 32 0] [74] 0 0
D 15.800475543 _23_ RTR  IFQ 3 10 cbr 230 [0 0 0 0] ------- [23:0 1:0 30 0] [10] 0 0
s 15.819142210 _23_ AGT  --- 3 75 cbr 210 [0 0 0 0] ------- [23:0 1:0 32 0] [75] 0 0
D 15.819142210 _23_ RTR  IFQ 3 11 cbr 230 [0 0 0 0] ------- [23:0 1:0 30 0] [11] 0 0
s 15.837808877 _23_ AGT  --- 3 76 cbr 210 [0 0 0 0] ------- [23:0 1:0 32 0] [76] 0 0
D 15.837808877 _23_ RTR  IFQ 3 12 cbr 230 [0 0 0 0] ------- [23:0 1:0 30 0] [12] 0 0
s 15.856475543 _23_ AGT  --- 3 77 cbr 210 [0 0 0 0] ------- [23:0 1:0 32 0] [77] 0 0
D 15.856475543 _23_ RTR  IFQ 3 13 cbr 230 [0 0 0 0] ------- [23:0 1:0 30 0] [13] 0 0
s 15.875142210 _23_ AGT  --- 3 78 cbr 210 [0 0 0 0] ------- [23:0 1:0 32 0] [78] 0 0
D 15.875142210 _23_ RTR  IFQ 3 14 cbr 230 [0 0 0 0] ------- [23:0 1:0 30 0] [14] 0 0
s 15.893808877 _23_ AGT  --- 3 79 cbr 210 [0 0 0 0] ------- [23:0 1:0 32 0] [79] 0 0
D 15.893808877 _23_ RTR  IFQ 3 15 cbr 230 [0 0 0 0] ------- [23:0 1:0 30 0] [15] 0 0
s 15.912475543 _23_ AGT  --- 3 80 cbr 210 [0 0 0 0] ------- [23:0 1:0 32 0] [80] 0 0
D 15.912475543 _23_ RTR  IFQ 3 16 cbr 230 [0 0 0 0] ------- [23:0 1:0 30 0] [16] 0 0
s 15.931142210 _23_ AGT  --- 3 81 cbr 210 [0 0 0 0] ------- [23:0 1:0 32 0] [81] 0 0
D 15.931142210 _23_ RTR  IFQ 3 17 cbr 230 [0 0 0 0] ------- [23:0 1:0 30 0] [17] 0 0
s 15.949808877 _23_ AGT  --- 3 82 cbr 210 [0 0 0 0] ------- [23:0 1:0 32 0] [82] 0 0
D 15.949808877 _23_ RTR  IFQ 3 18 cbr 230 [0 0 0 0] ------- [23:0 1:0 30 0] [18] 0 0
s 15.968475543 _23_ AGT  --- 3 83 cbr 210 [0 0 0 0] ------- [23:0 1:0 32 0] [83] 0 0
D 15.968475543 _23_ RTR  IFQ 3 19 cbr 230 [0 0 0 0] ------- [23:0 1:0 30 0] [19] 0 0
s 15.987142210 _23_ AGT  --- 3 84 cbr 210 [0 0 0 0] ------- [23:0 1:0 32 0] [84] 0 0
s 16.005808877 _23_ AGT  --- 3 85 cbr 210 [0 0 0 0] ------- [23:0 1:0 32 0] [85] 0 0
s 16.024475543 _23_ AGT  --- 3 86 cbr 210 [0 0 0 0] ------- [23:0 1:0 32 0] [86] 0 0
s 16.043142210 _23_ AGT  --- 3 87 cbr 210 [0 0 0 0] ------- [23:0 1:0 32 0] [87] 0 0
s 16.061808877 _23_ AGT  --- 3 88 cbr 210 [0 0 0 0] ------- [23:0 1:0 32 0] [88] 0 0
s 16.080475543 _23_ AGT  --- 3 89 cbr 210 [0 0 0 0] ------- [23:0 1:0 32 0] [89] 0 0
s 16.099142210 _23_ AGT  --- 3 90 cbr 210 [0 0 0 0] ------- [23:0 1:0 32 0] [90] 0 0
s 16.117808877 _23_ AGT  --- 3 91 cbr 210 [0 0 0 0] ------- [23:0 1:0 32 0] [91] 0 0
s 16.136475543 _23_ AGT  --- 3 92 cbr 210 [0 0 0 0] ------- [23:0 1:0 32 0] [92] 0 0
s 16.155142210 _23_ AGT  --- 3 93 cbr 210 [0 0 0 0] ------- [23:0 1:0 32 0] [93] 0 0
s 16.173808877 _23_ AGT  --- 3 94 cbr 210 [0 0 0 0] ------- [23:0 1:0 32 0] [94] 0 0
s 16.192475543 _23_ AGT  --- 3 95 cbr 210 [0 0 0 0] ------- [23:0 1:0 32 0] [95] 0 0
s 16.211142210 _23_ AGT  --- 3 96 cbr 210 [0 0 0 0] ------- [23:0 1:0 32 0] [96] 0 0
s 16.229808877 _23_ AGT  --- 3 97 cbr 210 [0 0 0 0] ------- [23:0 1:0 32 0] [97] 0 0
s 16.248475543 _23_ AGT  --- 3 98 cbr 210 [0 0 0 0] ------- [23:0 1:0 32 0] [98] 0 0
r 16.249153667 _1_ AGT  --- 3 20 cbr 230 [5 1 2 0] ------- [23:0 1:0 25 1] [20] 6 0
s 16.267142210 _23_ AGT  --- 3 99 cbr 210 [0 0 0 0] ------- [23:0 1:0 32 0] [99] 0 0
s 16.285808877 _23_ AGT  --- 3 100 cbr 210 [0 0 0 0] ------- [23:0 1:0 32 0] [100] 0 0
s 16.304475543 _23_ AGT  --- 3 101 cbr 210 [0 0 0 0] ------- [23:0 1:0 32 0] [101] 0 0
r 16.309153667 _1_ AGT  --- 3 21 cbr 230 [5 1 2 0] ------- [23:0 1:0 25 1] [21] 6 0
s 16.323142210 _23_ AGT  --- 3 102 cbr 210 [0 0 0 0] ------- [23:0 1:0 32 0] [102] 0 0
s 16.341808877 _23_ AGT  --- 3 103 cbr 210 [0 0 0 0] ------- [23:0 1:0 32 0] [103] 0 0
s 16.360475543 _23_ AGT  --- 3 104 cbr 210 [0 0 0 0] ------- [23:0 1:0 32 0] [104] 0 0
r 16.369153667 _1_ AGT  --- 3 84 cbr 230 [5 1 2 0] ------- [23:0 1:0 25 1] [84] 6 0
s 16.379142210 _23_ AGT  --- 3 105 cbr 210 [0 0 0 0] ------- [23:0 1:0 32 0] [105] 0 0
s 16.397808877 _23_ AGT  --- 3 106 cbr 210 [0 0 0 0] ------- [23:0 1:0 32 0] [106] 0 0
s 16.416475543 _23_ AGT  --- 3 107 cbr 210 [0 0 0 0] ------- [23:0 1:0 32 0] [107] 0 0
r 16.429153667 _1_ AGT  --- 3 22 cbr 230 [5 1 2 0] ------- [23:0 1:0 25 1] [22] 6 0
s 16.435142210 _23_ AGT  --- 3 108 cbr 210 [0 0 0 0] ------- [23:0 1:0 32 0] [108] 0 0
s 16.453808877 _23_ AGT  --- 3 109 cbr 210 [0 0 0 0] ------- [23:0 1:0 32 0] [109] 0 0
s 16.472475543 _23_ AGT  --- 3 110 cbr 210 [0 0 0 0] ------- [23:0 1:0 32 0] [110] 0 0
r 16.489153667 _1_ AGT  --- 3 23 cbr 230 [5 1 2 0] ------- [23:0 1:0 25 1] [23] 6 0
s 16.491142210 _23_ AGT  --- 3 111 cbr 210 [0 0 0 0] ------- [23:0 1:0 32 0] [111] 0 0
s 16.509808877 _23_ AGT  --- 3 112 cbr 210 [0 0 0 0] ------- [23:0 1:0 32 0] [112] 0 0
s 16.528475543 _23_ AGT  --- 3 113 cbr 210 [0 0 0 0] ------- [23:0 1:0 32 0] [113] 0 0
s 16.547142210 _23_ AGT  --- 3 114 cbr 210 [0 0 0 0] ------- [23:0 1:0 32 0] [114] 0 0
r 16.549153667 _1_ AGT  --- 3 85 cbr 230 [5 1 2 0] ------- [23:0 1:0 25 1] [85] 6 0
s 16.565808877 _23_ AGT  --- 3 115 cbr 210 [0 0 0 0] ------- [23:0 1:0 32 0] [115] 0 0
s 16.584475543 _23_ AGT  --- 3 116 cbr 210 [0 0 0 0] ------- [23:0 1:0 32 0] [116] 0 0
s 16.603142210 _23_ AGT  --- 3 117 cbr 210 [0 0 0 0] ------- [23:0 1:0 32 0] [117] 0 0
s 16.621808877 _23_ AGT  --- 3 118 cbr 210 [0 0 0 0] ------- [23:0 1:0 32 0] [118] 0 0
s 16.640475543 _23_ AGT  --- 3 119 cbr 210 [0 0 0 0] ------- [23:0 1:0 32 0] [119] 0 0
s 16.659142210 _23_ AGT  --- 3 120 cbr 210 [0 0 0 0] ------- [23:0 1:0 32 0] [120] 0 0
r 16.669153667 _1_ AGT  --- 3 24 cbr 230 [5 1 2 0] ------- [23:0 1:0 25 1] [24] 6 0
s 16.677808877 _23_ AGT  --- 3 121 cbr 210 [0 0 0 0] ------- [23:0 1:0 32 0] [121] 0 0
s 16.696475543 _23_ AGT  --- 3 122 cbr 210 [0 0 0 0] ------- [23:0 1:0 32 0] [122] 0 0
s 16.715142210 _23_ AGT  --- 3 123 cbr 210 [0 0 0 0] ------- [23:0 1:0 32 0] [123] 0 0
r 16.729153667 _1_ AGT  --- 3 25 cbr 230 [5 1 2 0] ------- [23:0 1:0 25 1] [25] 6 0
s 16.733808877 _23_ AGT  --- 3 124 cbr 210 [0 0 0 0] ------- [23:0 1:0 32 0] [124] 0 0
s 16.752475543 _23_ AGT  --- 3 125 cbr 210 [0 0 0 0] ------- [23:0 1:0 32 0] [125] 0 0
s 16.771142210 _23_ AGT  --- 3 126 cbr 210 [0 0 0 0] ------- [23:0 1:0 32 0] [126] 0 0
r 16.789153667 _1_ AGT  --- 3 86 cbr 230 [5 1 2 0] ------- [23:0 1:0 25 1] [86] 6 0
s 16.789808877 _23_ AGT  --- 3 127 cbr 210 [0 0 0 0] ------- [23:0 1:0 32 0] [127] 0 0
s 16.808475543 _23_ AGT  --- 3 128 cbr 210 [0 0 0 0] ------- [23:0 1:0 32 0] [128] 0 0
s 16.827142210 _23_ AGT  --- 3 129 cbr 210 [0 0 0 0] ------- [23:0 1:0 32 0] [129] 0 0
s 16.845808877 _23_ AGT  --- 3 130 cbr 210 [0 0 0 0] ------- [23:0 1:0 32 0] [130] 0 0
r 16.849153667 _1_ AGT  --- 3 26 cbr 230 [5 1 2 0] ------- [23:0 1:0 25 1] [26] 6 0
s 16.864475543 _23_ AGT  --- 3 131 cbr 210 [0 0 0 0] ------- [23:0 1:0 32 0] [131] 0 0
s 16.883142210 _23_ AGT  --- 3 132 cbr 210 [0 0 0 0] ------- [23:0 1:0 32 0] [132] 0 0
s 16.901808877 _23_ AGT  --- 3 133 cbr 210 [0 0 0 0] ------- [23:0 1:0 32 0] [133] 0 0
r 16.909153667 _1_ AGT  --- 3 87 cbr 230 [5 1 2 0] ------- [23:0 1:0 25 1] [87] 6 0
s 16.920475543 _23_ AGT  --- 3 134 cbr 210 [0 0 0 0] ------- [23:0 1:0 32 0] [134] 0 0
s 16.939142210 _23_ AGT  --- 3 135 cbr 210 [0 0 0 0] ------- [23:0 1:0 32 0] [135] 0 0
s 16.957808877 _23_ AGT  --- 3 136 cbr 210 [0 0 0 0] ------- [23:0 1:0 32 0] [136] 0 0
D 16.957833877 _23_ IFQ  --- 3 136 cbr 230 [0 12 17 0] ------- [23:0 1:0 30 18] [136] 0 0
r 16.969153667 _1_ AGT  --- 3 27 cbr 230 [5 1 2 0] ------- [23:0 1:0 25 1] [27] 6 0
s 16.976475543 _23_ AGT  --- 3 137 cbr 210 [0 0 0 0] ------- [23:0 1:0 32 0] [137] 0 0
D 16.976500543 _23_ IFQ  --- 3 137 cbr 230 [0 12 17 0] ------- [23:0 1:0 30 18] [137] 0 0
s 16.995142210 _23_ AGT  --- 3 138 cbr 210 [0 0 0 0] ------- [23:0 1:0 32 0] [138] 0 0
s 17.013808877 _23_ AGT  --- 3 139 cbr 210 [0 0 0 0] ------- [23:0 1:0 32 0] [139] 0 0
D 17.013833877 _23_ IFQ  --- 3 139 cbr 230 [0 12 17 0] ------- [23:0 1:0 30 18] [139] 0 0
r 17.029153667 _1_ AGT  --- 3 28 cbr 230 [5 1 2 0] ------- [23:0 1:0 25 1] [28] 6 0
s 17.032475543 _23_ AGT  --- 3 140 cbr 210 [0 0 0 0] ------- [23:0 1:0 32 0] [140] 0 0
D 17.032500543 _23_ IFQ  --- 3 140 cbr 230 [0 12 17 0] ------- [23:0 1:0 30 18] [140] 0 0
s 17.051142210 _23_ AGT  --- 3 141 cbr 210 [0 0 0 0] ------- [23:0 1:0 32 0] [141] 0 0
s 17.069808877 _23_ AGT  --- 3 142 cbr 210 [0 0 0 0] ------- [23:0 1:0 32 0] [142] 0 0
D 17.069833877 _23_ IFQ  --- 3 142 cbr 230 [0 12 17 0] ------- [23:0 1:0 30 18] [142] 0 0
s 17.088475543 _23_ AGT  --- 3 143 cbr 210 [0 0 0 0] ------- [23:0 1:0 32 0] [143] 0 0
D 17.088500543 _23_ IFQ  --- 3 143 cbr 230 [0 12 17 0] ------- [23:0 1:0 30 18] [143] 0 0
r 17.089153667 _1_ AGT  --- 3 88 cbr 230 [5 1 2 0] ------- [23:0 1:0 25 1] [88] 6 0
s 17.107142210 _23_ AGT  --- 3 144 cbr 210 [0 0 0 0] ------- [23:0 1:0 32 0] [144] 0 0
s 17.125808877 _23_ AGT  --- 3 145 cbr 210 [0 0 0 0] ------- [23:0 1:0 32 0] [145] 0 0
D 17.125833877 _23_ IFQ  --- 3 145 cbr 230 [0 12 17 0] ------- [23:0 1:0 30 18] [145] 0 0
s 17.144475543 _23_ AGT  --- 3 146 cbr 210 [0 0 0 0] ------- [23:0 1:0 32 0] [146] 0 0
D 17.144500543 _23_ IFQ  --- 3 146 cbr 230 [0 12 17 0] ------- [23:0 1:0 30 18] [146] 0 0
r 17.149153667 _1_ AGT  --- 3 29 cbr 230 [5 1 2 0] ------- [23:0 1:0 25 1] [29] 6 0
s 17.163142210 _23_ AGT  --- 3 147 cbr 210 [0 0 0 0] ------- [23:0 1:0 32 0] [147] 0 0
s 17.181808877 _23_ AGT  --- 3 148 cbr 210 [0 0 0 0] ------- [23:0 1:0 32 0] [148] 0 0
D 17.181833877 _23_ IFQ  --- 3 148 cbr 230 [0 12 17 0] ------- [23:0 1:0 30 18] [148] 0 0
s 17.200475543 _23_ AGT  --- 3 149 cbr 210 [0 0 0 0] ------- [23:0 1:0 32 0] [149] 0 0
D 17.200500543 _23_ IFQ  --- 3 149 cbr 230 [0 12 17 0] ------- [23:0 1:0 30 18] [149] 0 0
r 17.209153667 _1_ AGT  --- 3 30 cbr 230 [5 1 2 0] ------- [23:0 1:0 25 1] [30] 6 0
s 17.219142210 _23_ AGT  --- 3 150 cbr 210 [0 0 0 0] ------- [23:0 1:0 32 0] [150] 0 0
D 17.219167210 _23_ IFQ  --- 3 150 cbr 230 [0 12 17 0] ------- [23:0 1:0 30 18] [150] 0 0
s 17.237808877 _23_ AGT  --- 3 151 cbr 210 [0 0 0 0] ------- [23:0 1:0 32 0] [151] 0 0
s 17.256475543 _23_ AGT  --- 3 152 cbr 210 [0 0 0 0] ------- [23:0 1:0 32 0] [152] 0 0
D 17.256500543 _23_ IFQ  --- 3 152 cbr 230 [0 12 17 0] ------- [23:0 1:0 30 18] [152] 0 0
r 17.269153667 _1_ AGT  --- 3 89 cbr 230 [5 1 2 0] ------- [23:0 1:0 25 1] [89] 6 0
s 17.275142210 _23_ AGT  --- 3 153 cbr 210 [0 0 0 0] ------- [23:0 1:0 32 0] [153] 0 0
D 17.275167210 _23_ IFQ  --- 3 153 cbr 230 [0 12 17 0] ------- [23:0 1:0 30 18] [153] 0 0
s 17.293808877 _23_ AGT  --- 3 154 cbr 210 [0 0 0 0] ------- [23:0 1:0 32 0] [154] 0 0
s 17.312475543 _23_ AGT  --- 3 155 cbr 210 [0 0 0 0] ------- [23:0 1:0 32 0] [155] 0 0
D 17.312500543 _23_ IFQ  --- 3 155 cbr 230 [0 12 17 0] ------- [23:0 1:0 30 18] [155] 0 0
r 17.329153667 _1_ AGT  --- 3 31 cbr 230 [5 1 2 0] ------- [23:0 1:0 25 1] [31] 6 0
s 17.331142210 _23_ AGT  --- 3 156 cbr 210 [0 0 0 0] ------- [23:0 1:0 32 0] [156] 0 0
D 17.331167210 _23_ IFQ  --- 3 156 cbr 230 [0 12 17 0] ------- [23:0 1:0 30 18] [156] 0 0
s 17.349808877 _23_ AGT  --- 3 157 cbr 210 [0 0 0 0] ------- [23:0 1:0 32 0] [157] 0 0
s 17.368475543 _23_ AGT  --- 3 158 cbr 210 [0 0 0 0] ------- [23:0 1:0 32 0] [158] 0 0
D 17.368500543 _23_ IFQ  --- 3 158 cbr 230 [0 12 17 0] ------- [23:0 1:0 30 18] [158] 0 0
s 17.387142210 _23_ AGT  --- 3 159 cbr 210 [0 0 0 0] ------- [23:0 1:0 32 0] [159] 0 0
D 17.387167210 _23_ IFQ  --- 3 159 cbr 230 [0 12 17 0] ------- [23:0 1:0 30 18] [159] 0 0
r 17.389153667 _1_ AGT  --- 3 32 cbr 230 [5 1 2 0] ------- [23:0 1:0 25 1] [32] 6 0
s 17.405808877 _23_ AGT  --- 3 160 cbr 210 [0 0 0 0] ------- [23:0 1:0 32 0] [160] 0 0
s 17.424475543 _23_ AGT  --- 3 161 cbr 210 [0 0 0 0] ------- [23:0 1:0 32 0] [161] 0 0
D 17.424500543 _23_ IFQ  --- 3 161 cbr 230 [0 12 17 0] ------- [23:0 1:0 30 18] [161] 0 0
s 17.443142210 _23_ AGT  --- 3 162 cbr 210 [0 0 0 0] ------- [23:0 1:0 32 0] [162] 0 0
D 17.443167210 _23_ IFQ  --- 3 162 cbr 230 [0 12 17 0] ------- [23:0 1:0 30 18] [162] 0 0
r 17.449153667 _1_ AGT  --- 3 90 cbr 230 [5 1 2 0] ------- [23:0 1:0 25 1] [90] 6 0
s 17.461808877 _23_ AGT  --- 3 163 cbr 210 [0 0 0 0] ------- [23:0 1:0 32 0] [163] 0 0
s 17.480475543 _23_ AGT  --- 3 164 cbr 210 [0 0 0 0] ------- [23:0 1:0 32 0] [164] 0 0
D 17.480500543 _23_ IFQ  --- 3 164 cbr 230 [0 12 17 0] ------- [23:0 1:0 30 18] [164] 0 0
s 17.499142210 _23_ AGT  --- 3 165 cbr 210 [0 0 0 0] ------- [23:0 1:0 32 0] [165] 0 0
D 17.499167210 _23_ IFQ  --- 3 165 cbr 230 [0 12 17 0] ------- [23:0 1:0 30 18] [165] 0 0
r 17.509153667 _1_ AGT  --- 3 33 cbr 230 [5 1 2 0] ------- [23:0 1:0 25 1] [33] 6 0
s 17.517808877 _23_ AGT  --- 3 166 cbr 210 [0 0 0 0] ------- [23:0 1:0 32 0] [166] 0 0
D 17.517833877 _23_ IFQ  --- 3 166 cbr 230 [0 12 17 0] ------- [23:0 1:0 30 18] [166] 0 0
s 17.536475543 _23_ AGT  --- 3 167 cbr 210 [0 0 0 0] ------- [23:0 1:0 32 0] [167] 0 0
s 17.555142210 _23_ AGT  --- 3 168 cbr 210 [0 0 0 0] ------- [23:0 1:0 32 0] [168] 0 0
D 17.555167210 _23_ IFQ  --- 3 168 cbr 230 [0 12 17 0] ------- [23:0 1:0 30 18] [168] 0 0
r 17.569153667 _1_ AGT  --- 3 34 cbr 230 [5 1 2 0] ------- [23:0 1:0 25 1] [34] 6 0
s 17.573808877 _23_ AGT  --- 3 169 cbr 210 [0 0 0 0] ------- [23:0 1:0 32 0] [169] 0 0
D 17.573833877 _23_ IFQ  --- 3 169 cbr 230 [0 12 17 0] ------- [23:0 1:0 30 18] [169] 0 0
s 17.592475543 _23_ AGT  --- 3 170 cbr 210 [0 0 0 0] ------- [23:0 1:0 32 0] [170] 0 0
s 17.611142210 _23_ AGT  --- 3 171 cbr 210 [0 0 0 0] ------- [23:0 1:0 32 0] [171] 0 0
D 17.611167210 _23_ IFQ  --- 3 171 cbr 230 [0 12 17 0] ------- [23:0 1:0 30 18] [171] 0 0
D 17.623708812 _23_ IFQ  --- 3 170 cbr 230 [0 12 17 0] ------- [23:0 1:0 30 18] [170] 0 0
r 17.629153667 _1_ AGT  --- 3 91 cbr 230 [5 1 2 0] ------- [23:0 1:0 25 1] [91] 6 0
s 17.629808877 _23_ AGT  --- 3 172 cbr 210 [0 0 0 0] ------- [23:0 1:0 32 0] [172] 0 0
D 17.629833877 _23_ IFQ  --- 3 172 cbr 230 [0 12 17 0] ------- [23:0 1:0 30 18] [172] 0 0
s 17.648475543 _23_ AGT  --- 3 173 cbr 210 [0 0 0 0] ------- [23:0 1:0 32 0] [173] 0 0
s 17.667142210 _23_ AGT  --- 3 174 cbr 210 [0 0 0 0] ------- [23:0 1:0 32 0] [174] 0 0
s 17.685808877 _23_ AGT  --- 3 175 cbr 210 [0 0 0 0] ------- [23:0 1:0 32 0] [175] 0 0
D 17.685833877 _23_ IFQ  --- 3 175 cbr 230 [0 12 17 0] ------- [23:0 1:0 30 18] [175] 0 0
r 17.689153667 _1_ AGT  --- 3 35 cbr 230 [5 1 2 0] ------- [23:0 1:0 25 1] [35] 6 0
s 17.704475543 _23_ AGT  --- 3 176 cbr 210 [0 0 0 0] ------- [23:0 1:0 32 0] [176] 0 0
s 17.723142210 _23_ AGT  --- 3 177 cbr 210 [0 0 0 0] ------- [23:0 1:0 32 0] [177] 0 0
D 17.723167210 _23_ IFQ  --- 3 177 cbr 230 [0 12 17 0] ------- [23:0 1:0 30 18] [177] 0 0
s 17.741808877 _23_ AGT  --- 3 178 cbr 210 [0 0 0 0] ------- [23:0 1:0 32 0] [178] 0 0
D 17.741833877 _23_ IFQ  --- 3 178 cbr 230 [0 12 17 0] ------- [23:0 1:0 30 18] [178] 0 0
r 17.749153667 _1_ AGT  --- 3 36 cbr 230 [5 1 2 0] ------- [23:0 1:0 25 1] [36] 6 0
s 17.760475543 _23_ AGT  --- 3 179 cbr 210 [0 0 0 0] ------- [23:0 1:0 32 0] [179] 0 0
D 17.760500543 _23_ IFQ  --- 3 179 cbr 230 [0 12 17 0] ------- [23:0 1:0 30 18] [179] 0 0
s 17.779142210 _23_ AGT  --- 3 180 cbr 210 [0 0 0 0] ------- [23:0 1:0 32 0] [180] 0 0
s 17.797808877 _23_ AGT  --- 3 181 cbr 210 [0 0 0 0] ------- [23:0 1:0 32 0] [181] 0 0
D 17.797833877 _23_ IFQ  --- 3 181 cbr 230 [0 12 17 0] ------- [23:0 1:0 30 18] [181] 0 0
r 17.809153667 _1_ AGT  --- 3 92 cbr 230 [5 1 2 0] ------- [23:0 1:0 25 1] [92] 6 0
s 17.816475543 _23_ AGT  --- 3 182 cbr 210 [0 0 0 0] ------- [23:0 1:0 32 0] [182] 0 0
D 17.816500543 _23_ IFQ  --- 3 182 cbr 230 [0 12 17 0] ------- [23:0 1:0 30 18] [182] 0 0
s 17.835142210 _23_ AGT  --- 3 183 cbr 210 [0 0 0 0] ------- [23:0 1:0 32 0] [183] 0 0
s 17.853808877 _23_ AGT  --- 3 184 cbr 210 [0 0 0 0] ------- [23:0 1:0 32 0] [184] 0 0
D 17.853833877 _23_ IFQ  --- 3 184 cbr 230 [0 12 17 0] ------- [23:0 1:0 30 18] [184] 0 0
r 17.869153667 _1_ AGT  --- 3 37 cbr 230 [5 1 2 0] ------- [23:0 1:0 25 1] [37] 6 0
s 17.872475543 _23_ AGT  --- 3 185 cbr 210 [0 0 0 0] ------- [23:0 1:0 32 0] [185] 0 0
D 17.872500543 _23_ IFQ  --- 3 185 cbr 230 [0 12 17 0] ------- [23:0 1:0 30 18] [185] 0 0
s 17.891142210 _23_ AGT  --- 3 186 cbr 210 [0 0 0 0] ------- [23:0 1:0 32 0] [186] 0 0
s 17.909808877 _23_ AGT  --- 3 187 cbr 210 [0 0 0 0] ------- [23:0 1:0 32 0] [187] 0 0
D 17.909833877 _23_ IFQ  --- 3 187 cbr 230 [0 12 17 0] ------- [23:0 1:0 30 18] [187] 0 0
s 17.928475543 _23_ AGT  --- 3 188 cbr 210 [0 0 0 0] ------- [23:0 1:0 32 0] [188] 0 0
D 17.928500543 _23_ IFQ  --- 3 188 cbr 230 [0 12 17 0] ------- [23:0 1:0 30 18] [188] 0 0
r 17.929153667 _1_ AGT  --- 3 38 cbr 230 [5 1 2 0] ------- [23:0 1:0 25 1] [38] 6 0
s 17.947142210 _23_ AGT  --- 3 189 cbr 210 [0 0 0 0] ------- [23:0 1:0 32 0] [189] 0 0
s 17.965808877 _23_ AGT  --- 3 190 cbr 210 [0 0 0 0] ------- [23:0 1:0 32 0] [190] 0 0
D 17.965833877 _23_ IFQ  --- 3 190 cbr 230 [0 12 17 0] ------- [23:0 1:0 30 18] [190] 0 0
s 17.984475543 _23_ AGT  --- 3 191 cbr 210 [0 0 0 0] ------- [23:0 1:0 32 0] [191] 0 0
D 17.984500543 _23_ IFQ  --- 3 191 cbr 230 [0 12 17 0] ------- [23:0 1:0 30 18] [191] 0 0
r 17.989153667 _1_ AGT  --- 3 93 cbr 230 [5 1 2 0] ------- [23:0 1:0 25 1] [93] 6 0
s 18.003142210 _23_ AGT  --- 3 192 cbr 210 [0 0 0 0] ------- [23:0 1:0 32 0] [192] 0 0
s 18.021808877 _23_ AGT  --- 3 193 cbr 210 [0 0 0 0] ------- [23:0 1:0 32 0] [193] 0 0
D 18.021833877 _23_ IFQ  --- 3 193 cbr 230 [0 12 17 0] ------- [23:0 1:0 30 18] [193] 0 0
s 18.040475543 _23_ AGT  --- 3 194 cbr 210 [0 0 0 0] ------- [23:0 1:0 32 0] [194] 0 0
D 18.040500543 _23_ IFQ  --- 3 194 cbr 230 [0 12 17 0] ------- [23:0 1:0 30 18] [194] 0 0
r 18.049153667 _1_ AGT  --- 3 39 cbr 230 [5 1 2 0] ------- [23:0 1:0 25 1] [39] 6 0
s 18.059142210 _23_ AGT  --- 3 195 cbr 210 [0 0 0 0] ------- [23:0 1:0 32 0] [195] 0 0
D 18.059167210 _23_ IFQ  --- 3 195 cbr 230 [0 12 17 0] ------- [23:0 1:0 30 18] [195] 0 0
s 18.077808877 _23_ AGT  --- 3 196 cbr 210 [0 0 0 0] ------- [23:0 1:0 32 0] [196] 0 0
s 18.096475543 _23_ AGT  --- 3 197 cbr 210 [0 0 0 0] ------- [23:0 1:0 32 0] [197] 0 0
D 18.096500543 _23_ IFQ  --- 3 197 cbr 230 [0 12 17 0] ------- [23:0 1:0 30 18] [197] 0 0
r 18.109153667 _1_ AGT  --- 3 40 cbr 230 [5 1 2 0] ------- [23:0 1:0 25 1] [40] 6 0
s 18.115142210 _23_ AGT  --- 3 198 cbr 210 [0 0 0 0] ------- [23:0 1:0 32 0] [198] 0 0
D 18.115167210 _23_ IFQ  --- 3 198 cbr 230 [0 12 17 0] ------- [23:0 1:0 30 18] [198] 0 0
s 18.133808877 _23_ AGT  --- 3 199 cbr 210 [0 0 0 0] ------- [23:0 1:0 32 0] [199] 0 0
s 18.152475543 _23_ AGT  --- 3 200 cbr 210 [0 0 0 0] ------- [23:0 1:0 32 0] [200] 0 0
D 18.152500543 _23_ IFQ  --- 3 200 cbr 230 [0 12 17 0] ------- [23:0 1:0 30 18] [200] 0 0
r 18.169153667 _1_ AGT  --- 3 94 cbr 230 [5 1 2 0] ------- [23:0 1:0 25 1] [94] 6 0
s 18.171142210 _23_ AGT  --- 3 201 cbr 210 [0 0 0 0] ------- [23:0 1:0 32 0] [201] 0 0
D 18.171167210 _23_ IFQ  --- 3 201 cbr 230 [0 12 17 0] ------- [23:0 1:0 30 18] [201] 0 0
s 18.189808877 _23_ AGT  --- 3 202 cbr 210 [0 0 0 0] ------- [23:0 1:0 32 0] [202] 0 0
s 18.208475543 _23_ AGT  --- 3 203 cbr 210 [0 0 0 0] ------- [23:0 1:0 32 0] [203] 0 0
D 18.208500543 _23_ IFQ  --- 3 203 cbr 230 [0 12 17 0] ------- [23:0 1:0 30 18] [203] 0 0
s 18.227142210 _23_ AGT  --- 3 204 cbr 210 [0 0 0 0] ------- [23:0 1:0 32 0] [204] 0 0
D 18.227167210 _23_ IFQ  --- 3 204 cbr 230 [0 12 17 0] ------- [23:0 1:0 30 18] [204] 0 0
r 18.229153667 _1_ AGT  --- 3 41 cbr 230 [5 1 2 0] ------- [23:0 1:0 25 1] [41] 6 0
s 18.245808877 _23_ AGT  --- 3 205 cbr 210 [0 0 0 0] ------- [23:0 1:0 32 0] [205] 0 0
s 18.264475543 _23_ AGT  --- 3 206 cbr 210 [0 0 0 0] ------- [23:0 1:0 32 0] [206] 0 0
D 18.264500543 _23_ IFQ  --- 3 206 cbr 230 [0 12 17 0] ------- [23:0 1:0 30 18] [206] 0 0
s 18.283142210 _23_ AGT  --- 3 207 cbr 210 [0 0 0 0] ------- [23:0 1:0 32 0] [207] 0 0
D 18.283167210 _23_ IFQ  --- 3 207 cbr 230 [0 12 17 0] ------- [23:0 1:0 30 18] [207] 0 0
r 18.289153667 _1_ AGT  --- 3 95 cbr 230 [5 1 2 0] ------- [23:0 1:0 25 1] [95] 6 0
s 18.301808877 _23_ AGT  --- 3 208 cbr 210 [0 0 0 0] ------- [23:0 1:0 32 0] [208] 0 0
s 18.320475543 _23_ AGT  --- 3 209 cbr 210 [0 0 0 0] ------- [23:0 1:0 32 0] [209] 0 0
D 18.320500543 _23_ IFQ  --- 3 209 cbr 230 [0 12 17 0] ------- [23:0 1:0 30 18] [209] 0 0
s 18.339142210 _23_ AGT  --- 3 210 cbr 210 [0 0 0 0] ------- [23:0 1:0 32 0] [210] 0 0
D 18.339167210 _23_ IFQ  --- 3 210 cbr 230 [0 12 17 0] ------- [23:0 1:0 30 18] [210] 0 0
r 18.349153667 _1_ AGT  --- 3 42 cbr 230 [5 1 2 0] ------- [23:0 1:0 25 1] [42] 6 0
s 18.357808877 _23_ AGT  --- 3 211 cbr 210 [0 0 0 0] ------- [23:0 1:0 32 0] [211] 0 0
D 18.357833877 _23_ IFQ  --- 3 211 cbr 230 [0 12 17 0] ------- [23:0 1:0 30 18] [211] 0 0
s 18.376475543 _23_ AGT  --- 3 212 cbr 210 [0 0 0 0] ------- [23:0 1:0 32 0] [212] 0 0
s 18.395142210 _23_ AGT  --- 3 213 cbr 210 [0 0 0 0] ------- [23:0 1:0 32 0] [213] 0 0
D 18.395167210 _23_ IFQ  --- 3 213 cbr 230 [0 12 17 0] ------- [23:0 1:0 30 18] [213] 0 0
r 18.409153667 _1_ AGT  --- 3 43 cbr 230 [5 1 2 0] ------- [23:0 1:0 25 1] [43] 6 0
s 18.413808877 _23_ AGT  --- 3 214 cbr 210 [0 0 0 0] ------- [23:0 1:0 32 0] [214] 0 0
D 18.413833877 _23_ IFQ  --- 3 214 cbr 230 [0 12 17 0] ------- [23:0 1:0 30 18] [214] 0 0
s 18.432475543 _23_ AGT  --- 3 215 cbr 210 [0 0 0 0] ------- [23:0 1:0 32 0] [215] 0 0
s 18.451142210 _23_ AGT  --- 3 216 cbr 210 [0 0 0 0] ------- [23:0 1:0 32 0] [216] 0 0
D 18.451167210 _23_ IFQ  --- 3 216 cbr 230 [0 12 17 0] ------- [23:0 1:0 30 18] [216] 0 0
r 18.469153667 _1_ AGT  --- 3 96 cbr 230 [5 1 2 0] ------- [23:0 1:0 25 1] [96] 6 0
s 18.469808877 _23_ AGT  --- 3 217 cbr 210 [0 0 0 0] ------- [23:0 1:0 32 0] [217] 0 0
D 18.469833877 _23_ IFQ  --- 3 217 cbr 230 [0 12 17 0] ------- [23:0 1:0 30 18] [217] 0 0
s 18.488475543 _23_ AGT  --- 3 218 cbr 210 [0 0 0 0] ------- [23:0 1:0 32 0] [218] 0 0
s 18.507142210 _23_ AGT  --- 3 219 cbr 210 [0 0 0 0] ------- [23:0 1:0 32 0] [219] 0 0
D 18.507167210 _23_ IFQ  --- 3 219 cbr 230 [0 12 17 0] ------- [23:0 1:0 30 18] [219] 0 0
s 18.525808877 _23_ AGT  --- 3 220 cbr 210 [0 0 0 0] ------- [23:0 1:0 32 0] [220] 0 0
D 18.525833877 _23_ IFQ  --- 3 220 cbr 230 [0 12 17 0] ------- [23:0 1:0 30 18] [220] 0 0
r 18.529153667 _1_ AGT  --- 3 44 cbr 230 [5 1 2 0] ------- [23:0 1:0 25 1] [44] 6 0
s 18.544475543 _23_ AGT  --- 3 221 cbr 210 [0 0 0 0] ------- [23:0 1:0 32 0] [221] 0 0
s 18.563142210 _23_ AGT  --- 3 222 cbr 210 [0 0 0 0] ------- [23:0 1:0 32 0] [222] 0 0
D 18.563167210 _23_ IFQ  --- 3 222 cbr 230 [0 12 17 0] ------- [23:0 1:0 30 18] [222] 0 0
s 18.581808877 _23_ AGT  --- 3 223 cbr 210 [0 0 0 0] ------- [23:0 1:0 32 0] [223] 0 0
D 18.581833877 _23_ IFQ  --- 3 223 cbr 230 [0 12 17 0] ------- [23:0 1:0 30 18] [223] 0 0
r 18.589153667 _1_ AGT  --- 3 45 cbr 230 [5 1 2 0] ------- [23:0 1:0 25 1] [45] 6 0
s 18.600475543 _23_ AGT  --- 3 224 cbr 210 [0 0 0 0] ------- [23:0 1:0 32 0] [224] 0 0
D 18.600500543 _23_ IFQ  --- 3 224 cbr 230 [0 12 17 0] ------- [23:0 1:0 30 18] [224] 0 0
s 18.619142210 _23_ AGT  --- 3 225 cbr 210 [0 0 0 0] ------- [23:0 1:0 32 0] [225] 0 0