s 1.302596266 _18_ AGT  --- 2 0 cbr 210 [0 0 0 0] ------- [18:0 17:1 32 0] [0] 0 0
s 1.336196266 _18_ AGT  --- 2 1 cbr 210 [0 0 0 0] ------- [18:0 17:1 32 0] [1] 0 0
s 1.369796266 _18_ AGT  --- 2 2 cbr 210 [0 0 0 0] ------- [18:0 17:1 32 0] [2] 0 0
s 1.403396266 _18_ AGT  --- 2 3 cbr 210 [0 0 0 0] ------- [18:0 17:1 32 0] [3] 0 0
s 1.436996266 _18_ AGT  --- 2 4 cbr 210 [0 0 0 0] ------- [18:0 17:1 32 0] [4] 0 0
s 1.470596266 _18_ AGT  --- 2 5 cbr 210 [0 0 0 0] ------- [18:0 17:1 32 0] [5] 0 0
s 1.504196266 _18_ AGT  --- 2 6 cbr 210 [0 0 0 0] ------- [18:0 17:1 32 0] [6] 0 0
s 1.537796266 _18_ AGT  --- 2 7 cbr 210 [0 0 0 0] ------- [18:0 17:1 32 0] [7] 0 0
s 1.571396266 _18_ AGT  --- 2 8 cbr 210 [0 0 0 0] ------- [18:0 17:1 32 0] [8] 0 0
s 1.604996266 _18_ AGT  --- 2 9 cbr 210 [0 0 0 0] ------- [18:0 17:1 32 0] [9] 0 0
s 1.638596266 _18_ AGT  --- 2 10 cbr 210 [0 0 0 0] ------- [18:0 17:1 32 0] [10] 0 0
s 1.672196266 _18_ AGT  --- 2 11 cbr 210 [0 0 0 0] ------- [18:0 17:1 32 0] [11] 0 0
r 1.681153667 _17_ AGT  --- 2 0 cbr 230 [5 11 12 0] ------- [18:0 17:1 30 17] [0] 1 0
s 1.705796266 _18_ AGT  --- 2 12 cbr 210 [0 0 0 0] ------- [18:0 17:1 32 0] [12] 0 0
s 1.739396266 _18_ AGT  --- 2 13 cbr 210 [0 0 0 0] ------- [18:0 17:1 32 0] [13] 0 0
r 1.741153667 _17_ AGT  --- 2 10 cbr 230 [5 11 12 0] ------- [18:0 17:1 30 17] [10] 1 0
s 1.772996266 _18_ AGT  --- 2 14 cbr 210 [0 0 0 0] ------- [18:0 17:1 32 0] [14] 0 0
r 1.801153667 _17_ AGT  --- 2 1 cbr 230 [5 11 12 0] ------- [18:0 17:1 30 17] [1] 1 0
s 1.806596266 _18_ AGT  --- 2 15 cbr 210 [0 0 0 0] ------- [18:0 17:1 32 0] [15] 0 0
s 1.840196266 _18_ AGT  --- 2 16 cbr 210 [0 0 0 0] ------- [18:0 17:1 32 0] [16] 0 0
r 1.861153667 _17_ AGT  --- 2 2 cbr 230 [5 11 12 0] ------- [18:0 17:1 30 17] [2] 1 0
s 1.873796266 _18_ AGT  --- 2 17 cbr 210 [0 0 0 0] ------- [18:0 17:1 32 0] [17] 0 0
s 1.907396266 _18_ AGT  --- 2 18 cbr 210 [0 0 0 0] ------- [18:0 17:1 32 0] [18] 0 0
r 1.921153667 _17_ AGT  --- 2 3 cbr 230 [5 11 12 0] ------- [18:0 17:1 30 17] [3] 1 0
s 1.940996266 _18_ AGT  --- 2 19 cbr 210 [0 0 0 0] ------- [18:0 17:1 32 0] [19] 0 0
s 1.974596266 _18_ AGT  --- 2 20 cbr 210 [0 0 0 0] ------- [18:0 17:1 32 0] [20] 0 0
r 1.981153667 _17_ AGT  --- 2 11 cbr 230 [5 11 12 0] ------- [18:0 17:1 30 17] [11] 1 0
s 2.008196266 _18_ AGT  --- 2 21 cbr 210 [0 0 0 0] ------- [18:0 17:1 32 0] [21] 0 0
r 2.041153667 _17_ AGT  --- 2 4 cbr 230 [5 11 12 0] ------- [18:0 17:1 30 17] [4] 1 0
s 2.041796266 _18_ AGT  --- 2 22 cbr 210 [0 0 0 0] ------- [18:0 17:1 32 0] [22] 0 0
s 2.075396266 _18_ AGT  --- 2 23 cbr 210 [0 0 0 0] ------- [18:0 17:1 32 0] [23] 0 0
r 2.101153667 _17_ AGT  --- 2 5 cbr 230 [5 11 12 0] ------- [18:0 17:1 30 17] [5] 1 0
s 2.108996266 _18_ AGT  --- 2 24 cbr 210 [0 0 0 0] ------- [18:0 17:1 32 0] [24] 0 0
s 2.142596266 _18_ AGT  --- 2 25 cbr 210 [0 0 0 0] ------- [18:0 17:1 32 0] [25] 0 0
r 2.161153667 _17_ AGT  --- 2 6 cbr 230 [5 11 12 0] ------- [18:0 17:1 30 17] [6] 1 0
s 2.163028136 _14_ AGT  --- 1 26 cbr 210 [0 0 0 0] ------- [14:0 17:0 32 0] [0] 0 0
s 2.176196266 _18_ AGT  --- 2 27 cbr 210 [0 0 0 0] ------- [18:0 17:1 32 0] [26] 0 0
s 2.196628136 _14_ AGT  --- 1 28 cbr 210 [0 0 0 0] ------- [14:0 17:0 32 0] [1] 0 0
s 2.209796266 _18_ AGT  --- 2 29 cbr 210 [0 0 0 0] ------- [18:0 17:1 32 0] [27] 0 0
r 2.221153667 _17_ AGT  --- 2 7 cbr 230 [5 11 12 0] ------- [18:0 17:1 30 17] [7] 1 0
s 2.230228136 _14_ AGT  --- 1 30 cbr 210 [0 0 0 0] ------- [14:0 17:0 32 0] [2] 0 0
s 2.243396266 _18_ AGT  --- 2 31 cbr 210 [0 0 0 0] ------- [18:0 17:1 32 0] [28] 0 0
s 2.263828136 _14_ AGT  --- 1 32 cbr 210 [0 0 0 0] ------- [14:0 17:0 32 0] [3] 0 0
s 2.276996266 _18_ AGT  --- 2 33 cbr 210 [0 0 0 0] ------- [18:0 17:1 32 0] [29] 0 0
r 2.281153667 _17_ AGT  --- 2 12 cbr 230 [5 11 12 0] ------- [18:0 17:1 30 17] [12] 1 0
s 2.297428136 _14_ AGT  --- 1 34 cbr 210 [0 0 0 0] ------- [14:0 17:0 32 0] [4] 0 0
s 2.310596266 _18_ AGT  --- 2 35 cbr 210 [0 0 0 0] ------- [18:0 17:1 32 0] [30] 0 0
s 2.331028136 _14_ AGT  --- 1 36 cbr 210 [0 0 0 0] ------- [14:0 17:0 32 0] [5] 0 0
r 2.341153667 _17_ AGT  --- 2 8 cbr 230 [5 11 12 0] ------- [18:0 17:1 30 17] [8] 1 0
s 2.344196266 _18_ AGT  --- 2 37 cbr 210 [0 0 0 0] ------- [18:0 17:1 32 0] [31] 0 0
s 2.364628136 _14_ AGT  --- 1 38 cbr 210 [0 0 0 0] ------- [14:0 17:0 32 0] [6] 0 0
s 2.377796266 _18_ AGT  --- 2 39 cbr 210 [0 0 0 0] ------- [18:0 17:1 32 0] [32] 0 0
s 2.398228136 _14_ AGT  --- 1 40 cbr 210 [0 0 0 0] ------- [14:0 17:0 32 0] [7] 0 0
r 2.401153667 _17_ AGT  --- 2 9 cbr 230 [5 11 12 0] ------- [18:0 17:1 30 17] [9] 1 0
s 2.411396266 _18_ AGT  --- 2 41 cbr 210 [0 0 0 0] ------- [18:0 17:1 32 0] [33] 0 0
s 2.431828136 _14_ AGT  --- 1 42 cbr 210 [0 0 0 0] ------- [14:0 17:0 32 0] [8] 0 0
s 2.444996266 _18_ AGT  --- 2 43 cbr 210 [0 0 0 0] ------- [18:0 17:1 32 0] [34] 0 0
r 2.461153667 _17_ AGT  --- 2 13 cbr 230 [5 11 12 0] ------- [18:0 17:1 30 17] [13] 1 0
s 2.465428136 _14_ AGT  --- 1 44 cbr 210 [0 0 0 0] ------- [14:0 17:0 32 0] [9] 0 0
s 2.478596266 _18_ AGT  --- 2 45 cbr 210 [0 0 0 0] ------- [18:0 17:1 32 0] [35] 0 0
s 2.499028136 _14_ AGT  --- 1 46 cbr 210 [0 0 0 0] ------- [14:0 17:0 32 0] [10] 0 0
s 2.512196266 _18_ AGT  --- 2 47 cbr 210 [0 0 0 0] ------- [18:0 17:1 32 0] [36] 0 0
r 2.521153667 _17_ AGT  --- 2 14 cbr 230 [5 11 12 0] ------- [18:0 17:1 30 17] [14] 1 0
s 2.532628136 _14_ AGT  --- 1 48 cbr 210 [0 0 0 0] ------- [14:0 17:0 32 0] [11] 0 0
s 2.545796266 _18_ AGT  --- 2 49 cbr 210 [0 0 0 0] ------- [18:0 17:1 32 0] [37] 0 0
s 2.566228136 _14_ AGT  --- 1 50 cbr 210 [0 0 0 0] ------- [14:0 17:0 32 0] [12] 0 0
s 2.579396266 _18_ AGT  --- 2 51 cbr 210 [0 0 0 0] ------- [18:0 17:1 32 0] [38] 0 0
r 2.581153667 _17_ AGT  --- 2 15 cbr 230 [5 11 12 0] ------- [18:0 17:1 30 17] [15] 1 0
s 2.599828136 _14_ AGT  --- 1 52 cbr 210 [0 0 0 0] ------- [14:0 17:0 32 0] [13] 0 0
s 2.612996266 _18_ AGT  --- 2 53 cbr 210 [0 0 0 0] ------- [18:0 17:1 32 0] [39] 0 0
s 2.633428136 _14_ AGT  --- 1 54 cbr 210 [0 0 0 0] ------- [14:0 17:0 32 0] [14] 0 0
r 2.641153667 _17_ AGT  --- 2 16 cbr 230 [5 11 12 0] ------- [18:0 17:1 30 17] [16] 1 0
s 2.646596266 _18_ AGT  --- 2 55 cbr 210 [0 0 0 0] ------- [18:0 17:1 32 0] [40] 0 0
s 2.667028136 _14_ AGT  --- 1 56 cbr 210 [0 0 0 0] ------- [14:0 17:0 32 0] [15] 0 0
s 2.680196266 _18_ AGT  --- 2 57 cbr 210 [0 0 0 0] ------- [18:0 17:1 32 0] [41] 0 0
s 2.700628136 _14_ AGT  --- 1 58 cbr 210 [0 0 0 0] ------- [14:0 17:0 32 0] [16] 0 0
r 2.701153667 _17_ AGT  --- 2 17 cbr 230 [5 11 12 0] ------- [18:0 17:1 30 17] [17] 1 0
s 2.713796266 _18_ AGT  --- 2 59 cbr 210 [0 0 0 0] ------- [18:0 17:1 32 0] [42] 0 0
s 2.734228136 _14_ AGT  --- 1 60 cbr 210 [0 0 0 0] ------- [14:0 17:0 32 0] [17] 0 0
r 2.761153667 _17_ AGT  --- 2 18 cbr 230 [5 11 12 0] ------- [18:0 17:1 30 17] [18] 1 0
s 2.767828136 _14_ AGT  --- 1 61 cbr 210 [0 0 0 0] ------- [14:0 17:0 32 0] [18] 0 0
s 2.801428136 _14_ AGT  --- 1 62 cbr 210 [0 0 0 0] ------- [14:0 17:0 32 0] [19] 0 0
r 2.821153667 _17_ AGT  --- 2 19 cbr 230 [5 11 12 0] ------- [18:0 17:1 30 17] [19] 1 0
s 2.835028136 _14_ AGT  --- 1 63 cbr 210 [0 0 0 0] ------- [14:0 17:0 32 0] [20] 0 0
s 2.868628136 _14_ AGT  --- 1 64 cbr 210 [0 0 0 0] ------- [14:0 17:0 32 0] [21] 0 0
r 2.881153667 _17_ AGT  --- 2 20 cbr 230 [5 11 12 0] ------- [18:0 17:1 30 17] [20] 1 0
s 2.902228136 _14_ AGT  --- 1 65 cbr 210 [0 0 0 0] ------- [14:0 17:0 32 0] [22] 0 0
s 2.935828136 _14_ AGT  --- 1 66 cbr 210 [0 0 0 0] ------- [14:0 17:0 32 0] [23] 0 0
r 2.941153667 _17_ AGT  --- 2 21 cbr 230 [5 11 12 0] ------- [18:0 17:1 30 17] [21] 1 0
s 2.969428136 _14_ AGT  --- 1 67 cbr 210 [0 0 0 0] ------- [14:0 17:0 32 0] [24] 0 0
r 3.001153667 _17_ AGT  --- 2 22 cbr 230 [5 11 12 0] ------- [18:0 17:1 30 17] [22] 1 0
s 3.003028136 _14_ AGT  --- 1 68 cbr 210 [0 0 0 0] ------- [14:0 17:0 32 0] [25] 0 0
s 3.036628136 _14_ AGT  --- 1 69 cbr 210 [0 0 0 0] ------- [14:0 17:0 32 0] [26] 0 0
r 3.061153667 _17_ AGT  --- 2 23 cbr 230 [5 11 12 0] ------- [18:0 17:1 30 17] [23] 1 0
s 3.070228136 _14_ AGT  --- 1 70 cbr 210 [0 0 0 0] ------- [14:0 17:0 32 0] [27] 0 0
r 3.097153667 _17_ AGT  --- 1 26 cbr 230 [5 11 c 0] ------- [14:0 17:0 28 17] [0] 3 0
s 3.103828136 _14_ AGT  --- 1 71 cbr 210 [0 0 0 0] ------- [14:0 17:0 32 0] [28] 0 0
r 3.121153667 _17_ AGT  --- 2 24 cbr 230 [5 11 12 0] ------- [18:0 17:1 30 17] [24] 1 0
s 3.137428136 _14_ AGT  --- 1 72 cbr 210 [0 0 0 0] ------- [14:0 17:0 32 0] [29] 0 0
r 3.157153667 _17_ AGT  --- 1 28 cbr 230 [5 11 c 0] ------- [14:0 17:0 28 17] [1] 3 0
s 3.171028136 _14_ AGT  --- 1 73 cbr 210 [0 0 0 0] ------- [14:0 17:0 32 0] [30] 0 0
r 3.181153667 _17_ AGT  --- 2 25 cbr 230 [5 11 12 0] ------- [18:0 17:1 30 17] [25] 1 0
s 3.204628136 _14_ AGT  --- 1 74 cbr 210 [0 0 0 0] ------- [14:0 17:0 32 0] [31] 0 0
r 3.217153667 _17_ AGT  --- 1 67 cbr 230 [5 11 c 0] ------- [14:0 17:0 28 17] [24] 3 0
s 3.238228136 _14_ AGT  --- 1 75 cbr 210 [0 0 0 0] ------- [14:0 17:0 32 0] [32] 0 0
r 3.241153667 _17_ AGT  --- 2 27 cbr 230 [5 11 12 0] ------- [18:0 17:1 30 17] [26] 1 0
s 3.271828136 _14_ AGT  --- 1 76 cbr 210 [0 0 0 0] ------- [14:0 17:0 32 0] [33] 0 0
r 3.277153667 _17_ AGT  --- 1 30 cbr 230 [5 11 c 0] ------- [14:0 17:0 28 17] [2] 3 0
r 3.301153667 _17_ AGT  --- 2 29 cbr 230 [5 11 12 0] ------- [18:0 17:1 30 17] [27] 1 0
s 3.305428136 _14_ AGT  --- 1 77 cbr 210 [0 0 0 0] ------- [14:0 17:0 32 0] [34] 0 0
r 3.337153667 _17_ AGT  --- 1 32 cbr 230 [5 11 c 0] ------- [14:0 17:0 28 17] [3] 3 0
s 3.339028136 _14_ AGT  --- 1 78 cbr 210 [0 0 0 0] ------- [14:0 17:0 32 0] [35] 0 0
r 3.361153667 _17_ AGT  --- 2 31 cbr 230 [5 11 12 0] ------- [18:0 17:1 30 17] [28] 1 0
s 3.372628136 _14_ AGT  --- 1 79 cbr 210 [0 0 0 0] ------- [14:0 17:0 32 0] [36] 0 0
r 3.397153667 _17_ AGT  --- 1 34 cbr 230 [5 11 c 0] ------- [14:0 17:0 28 17] [4] 3 0
s 3.406228136 _14_ AGT  --- 1 80 cbr 210 [0 0 0 0] ------- [14:0 17:0 32 0] [37] 0 0
r 3.421153667 _17_ AGT  --- 2 33 cbr 230 [5 11 12 0] ------- [18:0 17:1 30 17] [29] 1 0
s 3.439828136 _14_ AGT  --- 1 81 cbr 210 [0 0 0 0] ------- [14:0 17:0 32 0] [38] 0 0
r 3.457153667 _17_ AGT  --- 1 68 cbr 230 [5 11 c 0] ------- [14:0 17:0 28 17] [25] 3 0
s 3.473428136 _14_ AGT  --- 1 82 cbr 210 [0 0 0 0] ------- [14:0 17:0 32 0] [39] 0 0
r 3.481153667 _17_ AGT  --- 2 35 cbr 230 [5 11 12 0] ------- [18:0 17:1 30 17] [30] 1 0
s 3.507028136 _14_ AGT  --- 1 83 cbr 210 [0 0 0 0] ------- [14:0 17:0 32 0] [40] 0 0
r 3.517153667 _17_ AGT  --- 1 36 cbr 230 [5 11 c 0] ------- [14:0 17:0 28 17] [5] 3 0
s 3.540628136 _14_ AGT  --- 1 84 cbr 210 [0 0 0 0] ------- [14:0 17:0 32 0] [41] 0 0
r 3.541153667 _17_ AGT  --- 2 37 cbr 230 [5 11 12 0] ------- [18:0 17:1 30 17] [31] 1 0
s 3.574228136 _14_ AGT  --- 1 85 cbr 210 [0 0 0 0] ------- [14:0 17:0 32 0] [42] 0 0
r 3.577153667 _17_ AGT  --- 1 38 cbr 230 [5 11 c 0] ------- [14:0 17:0 28 17] [6] 3 0
r 3.601153667 _17_ AGT  --- 2 39 cbr 230 [5 11 12 0] ------- [18:0 17:1 30 17] [32] 1 0
s 3.607828136 _14_ AGT  --- 1 86 cbr 210 [0 0 0 0] ------- [14:0 17:0 32 0] [43] 0 0
r 3.637153667 _17_ AGT  --- 1 40 cbr 230 [5 11 c 0] ------- [14:0 17:0 28 17] [7] 3 0
s 3.641428136 _14_ AGT  --- 1 87 cbr 210 [0 0 0 0] ------- [14:0 17:0 32 0] [44] 0 0
r 3.661153667 _17_ AGT  --- 2 41 cbr 230 [5 11 12 0] ------- [18:0 17:1 30 17] [33] 1 0
s 3.675028136 _14_ AGT  --- 1 88 cbr 210 [0 0 0 0] ------- [14:0 17:0 32 0] [45] 0 0
r 3.697153667 _17_ AGT  --- 1 42 cbr 230 [5 11 c 0] ------- [14:0 17:0 28 17] [8] 3 0
s 3.708628136 _14_ AGT  --- 1 89 cbr 210 [0 0 0 0] ------- [14:0 17:0 32 0] [46] 0 0
r 3.721153667 _17_ AGT  --- 2 43 cbr 230 [5 11 12 0] ------- [18:0 17:1 30 17] [34] 1 0
s 3.742228136 _14_ AGT  --- 1 90 cbr 210 [0 0 0 0] ------- [14:0 17:0 32 0] [47] 0 0
r 3.757153667 _17_ AGT  --- 1 69 cbr 230 [5 11 c 0] ------- [14:0 17:0 28 17] [26] 3 0
s 3.775828136 _14_ AGT  --- 1 91 cbr 210 [0 0 0 0] ------- [14:0 17:0 32 0] [48] 0 0
r 3.781153667 _17_ AGT  --- 2 45 cbr 230 [5 11 12 0] ------- [18:0 17:1 30 17] [35] 1 0
s 3.809428136 _14_ AGT  --- 1 92 cbr 210 [0 0 0 0] ------- [14:0 17:0 32 0] [49] 0 0
r 3.817153667 _17_ AGT  --- 1 44 cbr 230 [5 11 c 0] ------- [14:0 17:0 28 17] [9] 3 0
r 3.841153667 _17_ AGT  --- 2 47 cbr 230 [5 11 12 0] ------- [18:0 17:1 30 17] [36] 1 0
s 3.843028136 _14_ AGT  --- 1 93 cbr 210 [0 0 0 0] ------- [14:0 17:0 32 0] [50] 0 0
s 3.876628136 _14_ AGT  --- 1 94 cbr 210 [0 0 0 0] ------- [14:0 17:0 32 0] [51] 0 0
r 3.877153667 _17_ AGT  --- 1 46 cbr 230 [5 11 c 0] ------- [14:0 17:0 28 17] [10] 3 0
r 3.901153667 _17_ AGT  --- 2 49 cbr 230 [5 11 12 0] ------- [18:0 17:1 30 17] [37] 1 0
s 3.910228136 _14_ AGT  --- 1 95 cbr 210 [0 0 0 0] ------- [14:0 17:0 32 0] [52] 0 0
r 3.937153667 _17_ AGT  --- 1 48 cbr 230 [5 11 c 0] ------- [14:0 17:0 28 17] [11] 3 0
s 3.943828136 _14_ AGT  --- 1 96 cbr 210 [0 0 0 0] ------- [14:0 17:0 32 0] [53] 0 0
r 3.961153667 _17_ AGT  --- 2 51 cbr 230 [5 11 12 0] ------- [18:0 17:1 30 17] [38] 1 0
s 3.977428136 _14_ AGT  --- 1 97 cbr 210 [0 0 0 0] ------- [14:0 17:0 32 0] [54] 0 0
r 3.997153667 _17_ AGT  --- 1 70 cbr 230 [5 11 c 0] ------- [14:0 17:0 28 17] [27] 3 0
s 4.011028136 _14_ AGT  --- 1 98 cbr 210 [0 0 0 0] ------- [14:0 17:0 32 0] [55] 0 0
r 4.021153667 _17_ AGT  --- 2 53 cbr 230 [5 11 12 0] ------- [18:0 17:1 30 17] [39] 1 0
r 4.057153667 _17_ AGT  --- 1 50 cbr 230 [5 11 c 0] ------- [14:0 17:0 28 17] [12] 3 0
r 4.081153667 _17_ AGT  --- 2 55 cbr 230 [5 11 12 0] ------- [18:0 17:1 30 17] [40] 1 0
r 4.117153667 _17_ AGT  --- 1 52 cbr 230 [5 11 c 0] ------- [14:0 17:0 28 17] [13] 3 0
r 4.141153667 _17_ AGT  --- 2 57 cbr 230 [5 11 12 0] ------- [18:0 17:1 30 17] [41] 1 0
r 4.177153667 _17_ AGT  --- 1 54 cbr 230 [5 11 c 0] ------- [14:0 17:0 28 17] [14] 3 0
r 4.201153667 _17_ AGT  --- 2 59 cbr 230 [5 11 12 0] ------- [18:0 17:1 30 17] [42] 1 0
r 4.237153667 _17_ AGT  --- 1 56 cbr 230 [5 11 c 0] ------- [14:0 17:0 28 17] [15] 3 0
r 4.297153667 _17_ AGT  --- 1 71 cbr 230 [5 11 c 0] ------- [14:0 17:0 28 17] [28] 3 0
r 4.357153667 _17_ AGT  --- 1 58 cbr 230 [5 11 c 0] ------- [14:0 17:0 28 17] [16] 3 0
r 4.417153667 _17_ AGT  --- 1 60 cbr 230 [5 11 c 0] ------- [14:0 17:0 28 17] [17] 3 0
r 4.477153667 _17_ AGT  --- 1 61 cbr 230 [5 11 c 0] ------- [14:0 17:0 28 17] [18] 3 0
r 4.537153667 _17_ AGT  --- 1 72 cbr 230 [5 11 c 0] ------- [14:0 17:0 28 17] [29] 3 0
r 4.597153667 _17_ AGT  --- 1 62 cbr 230 [5 11 c 0] ------- [14:0 17:0 28 17] [19] 3 0
r 4.657153667 _17_ AGT  --- 1 63 cbr 230 [5 11 c 0] ------- [14:0 17:0 28 17] [20] 3 0
r 4.717153667 _17_ AGT  --- 1 64 cbr 230 [5 11 c 0] ------- [14:0 17:0 28 17] [21] 3 0
r 4.777153667 _17_ AGT  --- 1 73 cbr 230 [5 11 c 0] ------- [14:0 17:0 28 17] [30] 3 0
r 4.837153667 _17_ AGT  --- 1 65 cbr 230 [5 11 c 0] ------- [14:0 17:0 28 17] [22] 3 0
r 4.897153667 _17_ AGT  --- 1 66 cbr 230 [5 11 c 0] ------- [14:0 17:0 28 17] [23] 3 0
r 4.957153667 _17_ AGT  --- 1 74 cbr 230 [5 11 c 0] ------- [14:0 17:0 28 17] [31] 3 0
r 5.017153667 _17_ AGT  --- 1 75 cbr 230 [5 11 c 0] ------- [14:0 17:0 28 17] [32] 3 0
r 5.077153667 _17_ AGT  --- 1 76 cbr 230 [5 11 c 0] ------- [14:0 17:0 28 17] [33] 3 0
r 5.137153667 _17_ AGT  --- 1 77 cbr 230 [5 11 c 0] ------- [14:0 17:0 28 17] [34] 3 0
r 5.197153667 _17_ AGT  --- 1 78 cbr 230 [5 11 c 0] ------- [14:0 17:0 28 17] [35] 3 0
r 5.257153667 _17_ AGT  --- 1 79 cbr 230 [5 11 c 0] ------- [14:0 17:0 28 17] [36] 3 0
r 5.317153667 _17_ AGT  --- 1 80 cbr 230 [5 11 c 0] ------- [14:0 17:0 28 17] [37] 3 0
r 5.377153667 _17_ AGT  --- 1 81 cbr 230 [5 11 c 0] ------- [14:0 17:0 28 17] [38] 3 0
r 5.437153667 _17_ AGT  --- 1 82 cbr 230 [5 11 c 0] ------- [14:0 17:0 28 17] [39] 3 0
r 5.497153667 _17_ AGT  --- 1 83 cbr 230 [5 11 c 0] ------- [14:0 17:0 28 17] [40] 3 0
r 5.557153667 _17_ AGT  --- 1 84 cbr 230 [5 11 c 0] ------- [14:0 17:0 28 17] [41] 3 0
r 5.617153667 _17_ AGT  --- 1 85 cbr 230 [5 11 c 0] ------- [14:0 17:0 28 17] [42] 3 0
r 5.677153667 _17_ AGT  --- 1 86 cbr 230 [5 11 c 0] ------- [14:0 17:0 28 17] [43] 3 0
r 5.737153667 _17_ AGT  --- 1 87 cbr 230 [5 11 c 0] ------- [14:0 17:0 28 17] [44] 3 0
r 5.797153667 _17_ AGT  --- 1 88 cbr 230 [5 11 c 0] ------- [14:0 17:0 28 17] [45] 3 0
r 5.857153667 _17_ AGT  --- 1 89 cbr 230 [5 11 c 0] ------- [14:0 17:0 28 17] [46] 3 0
r 5.917153667 _17_ AGT  --- 1 90 cbr 230 [5 11 c 0] ------- [14:0 17:0 28 17] [47] 3 0
r 5.977153667 _17_ AGT  --- 1 91 cbr 230 [5 11 c 0] ------- [14:0 17:0 28 17] [48] 3 0
r 6.037153667 _17_ AGT  --- 1 92 cbr 230 [5 11 c 0] ------- [14:0 17:0 28 17] [49] 3 0
r 6.097153667 _17_ AGT  --- 1 93 cbr 230 [5 11 c 0] ------- [14:0 17:0 28 17] [50] 3 0
r 6.157153667 _17_ AGT  --- 1 94 cbr 230 [5 11 c 0] ------- [14:0 17:0 28 17] [51] 3 0
r 6.217153667 _17_ AGT  --- 1 95 cbr 230 [5 11 c 0] ------- [14:0 17:0 28 17] [52] 3 0
r 6.277153667 _17_ AGT  --- 1 96 cbr 230 [5 11 c 0] ------- [14:0 17:0 28 17] [53] 3 0
r 6.337153667 _17_ AGT  --- 1 97 cbr 230 [5 11 c 0] ------- [14:0 17:0 28 17] [54] 3 0
r 6.397153667 _17_ AGT  --- 1 98 cbr 230 [5 11 c 0] ------- [14:0 17:0 28 17] [55] 3 0
