s 21.053381274 _13_ AGT  --- 5 0 cbr 210 [0 0 0 0] ------- [13:1 5:0 32 0] [0] 0 0
s 21.064581274 _13_ AGT  --- 5 1 cbr 210 [0 0 0 0] ------- [13:1 5:0 32 0] [1] 0 0
s 21.075781274 _13_ AGT  --- 5 2 cbr 210 [0 0 0 0] ------- [13:1 5:0 32 0] [2] 0 0
s 21.086981274 _13_ AGT  --- 5 3 cbr 210 [0 0 0 0] ------- [13:1 5:0 32 0] [3] 0 0
s 21.098181274 _13_ AGT  --- 5 4 cbr 210 [0 0 0 0] ------- [13:1 5:0 32 0] [4] 0 0
s 21.109381274 _13_ AGT  --- 5 5 cbr 210 [0 0 0 0] ------- [13:1 5:0 32 0] [5] 0 0
s 21.120581274 _13_ AGT  --- 5 6 cbr 210 [0 0 0 0] ------- [13:1 5:0 32 0] [6] 0 0
s 21.131781274 _13_ AGT  --- 5 7 cbr 210 [0 0 0 0] ------- [13:1 5:0 32 0] [7] 0 0
s 21.142981274 _13_ AGT  --- 5 8 cbr 210 [0 0 0 0] ------- [13:1 5:0 32 0] [8] 0 0
s 21.154181274 _13_ AGT  --- 5 9 cbr 210 [0 0 0 0] ------- [13:1 5:0 32 0] [9] 0 0
s 21.165381274 _13_ AGT  --- 5 10 cbr 210 [0 0 0 0] ------- [13:1 5:0 32 0] [10] 0 0
s 21.176581274 _13_ AGT  --- 5 11 cbr 210 [0 0 0 0] ------- [13:1 5:0 32 0] [11] 0 0
s 21.187781274 _13_ AGT  --- 5 12 cbr 210 [0 0 0 0] ------- [13:1 5:0 32 0] [12] 0 0
s 21.198981274 _13_ AGT  --- 5 13 cbr 210 [0 0 0 0] ------- [13:1 5:0 32 0] [13] 0 0
s 21.210181274 _13_ AGT  --- 5 14 cbr 210 [0 0 0 0] ------- [13:1 5:0 32 0] [14] 0 0
s 21.221381274 _13_ AGT  --- 5 15 cbr 210 [0 0 0 0] ------- [13:1 5:0 32 0] [15] 0 0
s 21.232581274 _13_ AGT  --- 5 16 cbr 210 [0 0 0 0] ------- [13:1 5:0 32 0] [16] 0 0
s 21.243781274 _13_ AGT  --- 5 17 cbr 210 [0 0 0 0] ------- [13:1 5:0 32 0] [17] 0 0
s 21.254981274 _13_ AGT  --- 5 18 cbr 210 [0 0 0 0] ------- [13:1 5:0 32 0] [18] 0 0
s 21.266181274 _13_ AGT  --- 5 19 cbr 210 [0 0 0 0] ------- [13:1 5:0 32 0] [19] 0 0
s 21.277381274 _13_ AGT  --- 5 20 cbr 210 [0 0 0 0] ------- [13:1 5:0 32 0] [20] 0 0
s 21.288581274 _13_ AGT  --- 5 21 cbr 210 [0 0 0 0] ------- [13:1 5:0 32 0] [21] 0 0
s 21.299781274 _13_ AGT  --- 5 22 cbr 210 [0 0 0 0] ------- [13:1 5:0 32 0] [22] 0 0
s 21.310981274 _13_ AGT  --- 5 23 cbr 210 [0 0 0 0] ------- [13:1 5:0 32 0] [23] 0 0
s 21.322181274 _13_ AGT  --- 5 24 cbr 210 [0 0 0 0] ------- [13:1 5:0 32 0] [24] 0 0
s 21.333381274 _13_ AGT  --- 5 25 cbr 210 [0 0 0 0] ------- [13:1 5:0 32 0] [25] 0 0
s 21.344581274 _13_ AGT  --- 5 26 cbr 210 [0 0 0 0] ------- [13:1 5:0 32 0] [26] 0 0
s 21.355781274 _13_ AGT  --- 5 27 cbr 210 [0 0 0 0] ------- [13:1 5:0 32 0] [27] 0 0
s 21.366981274 _13_ AGT  --- 5 28 cbr 210 [0 0 0 0] ------- [13:1 5:0 32 0] [28] 0 0
s 21.378181274 _13_ AGT  --- 5 29 cbr 210 [0 0 0 0] ------- [13:1 5:0 32 0] [29] 0 0
s 21.389381274 _13_ AGT  --- 5 30 cbr 210 [0 0 0 0] ------- [13:1 5:0 32 0] [30] 0 0
s 21.400581274 _13_ AGT  --- 5 31 cbr 210 [0 0 0 0] ------- [13:1 5:0 32 0] [31] 0 0
s 21.411781274 _13_ AGT  --- 5 32 cbr 210 [0 0 0 0] ------- [13:1 5:0 32 0] [32] 0 0
s 21.422981274 _13_ AGT  --- 5 33 cbr 210 [0 0 0 0] ------- [13:1 5:0 32 0] [33] 0 0
s 21.434181274 _13_ AGT  --- 5 34 cbr 210 [0 0 0 0] ------- [13:1 5:0 32 0] [34] 0 0
s 21.445381274 _13_ AGT  --- 5 35 cbr 210 [0 0 0 0] ------- [13:1 5:0 32 0] [35] 0 0
s 21.456581274 _13_ AGT  --- 5 36 cbr 210 [0 0 0 0] ------- [13:1 5:0 32 0] [36] 0 0
s 21.467781274 _13_ AGT  --- 5 37 cbr 210 [0 0 0 0] ------- [13:1 5:0 32 0] [37] 0 0
s 21.478981274 _13_ AGT  --- 5 38 cbr 210 [0 0 0 0] ------- [13:1 5:0 32 0] [38] 0 0
s 21.490181274 _13_ AGT  --- 5 39 cbr 210 [0 0 0 0] ------- [13:1 5:0 32 0] [39] 0 0
s 21.501381274 _13_ AGT  --- 5 40 cbr 210 [0 0 0 0] ------- [13:1 5:0 32 0] [40] 0 0
s 21.512581274 _13_ AGT  --- 5 41 cbr 210 [0 0 0 0] ------- [13:1 5:0 32 0] [41] 0 0
s 21.523781274 _13_ AGT  --- 5 42 cbr 210 [0 0 0 0] ------- [13:1 5:0 32 0] [42] 0 0
s 21.534981274 _13_ AGT  --- 5 43 cbr 210 [0 0 0 0] ------- [13:1 5:0 32 0] [43] 0 0
s 21.546181274 _13_ AGT  --- 5 44 cbr 210 [0 0 0 0] ------- [13:1 5:0 32 0] [44] 0 0
s 21.557381274 _13_ AGT  --- 5 45 cbr 210 [0 0 0 0] ------- [13:1 5:0 32 0] [45] 0 0
s 21.568581274 _13_ AGT  --- 5 46 cbr 210 [0 0 0 0] ------- [13:1 5:0 32 0] [46] 0 0
s 21.579781274 _13_ AGT  --- 5 47 cbr 210 [0 0 0 0] ------- [13:1 5:0 32 0] [47] 0 0
s 21.590981274 _13_ AGT  --- 5 48 cbr 210 [0 0 0 0] ------- [13:1 5:0 32 0] [48] 0 0
s 21.602181274 _13_ AGT  --- 5 49 cbr 210 [0 0 0 0] ------- [13:1 5:0 32 0] [49] 0 0
s 21.613381274 _13_ AGT  --- 5 50 cbr 210 [0 0 0 0] ------- [13:1 5:0 32 0] [50] 0 0
s 21.624581274 _13_ AGT  --- 5 51 cbr 210 [0 0 0 0] ------- [13:1 5:0 32 0] [51] 0 0
s 21.635781274 _13_ AGT  --- 5 52 cbr 210 [0 0 0 0] ------- [13:1 5:0 32 0] [52] 0 0
s 21.646981274 _13_ AGT  --- 5 53 cbr 210 [0 0 0 0] ------- [13:1 5:0 32 0] [53] 0 0
s 21.658181274 _13_ AGT  --- 5 54 cbr 210 [0 0 0 0] ------- [13:1 5:0 32 0] [54] 0 0
s 21.669381274 _13_ AGT  --- 5 55 cbr 210 [0 0 0 0] ------- [13:1 5:0 32 0] [55] 0 0
s 21.680581274 _13_ AGT  --- 5 56 cbr 210 [0 0 0 0] ------- [13:1 5:0 32 0] [56] 0 0
s 21.691781274 _13_ AGT  --- 5 57 cbr 210 [0 0 0 0] ------- [13:1 5:0 32 0] [57] 0 0
s 21.702981274 _13_ AGT  --- 5 58 cbr 210 [0 0 0 0] ------- [13:1 5:0 32 0] [58] 0 0
s 21.714181274 _13_ AGT  --- 5 59 cbr 210 [0 0 0 0] ------- [13:1 5:0 32 0] [59] 0 0
s 21.725381274 _13_ AGT  --- 5 60 cbr 210 [0 0 0 0] ------- [13:1 5:0 32 0] [60] 0 0
s 21.736581274 _13_ AGT  --- 5 61 cbr 210 [0 0 0 0] ------- [13:1 5:0 32 0] [61] 0 0
s 21.747781274 _13_ AGT  --- 5 62 cbr 210 [0 0 0 0] ------- [13:1 5:0 32 0] [62] 0 0
s 21.758981274 _13_ AGT  --- 5 63 cbr 210 [0 0 0 0] ------- [13:1 5:0 32 0] [63] 0 0
s 21.770181274 _13_ AGT  --- 5 64 cbr 210 [0 0 0 0] ------- [13:1 5:0 32 0] [64] 0 0
D 21.770181274 _13_ RTR  IFQ 5 0 cbr 230 [0 0 0 0] ------- [13:1 5:0 30 0] [0] 0 0
s 21.781381274 _13_ AGT  --- 5 65 cbr 210 [0 0 0 0] ------- [13:1 5:0 32 0] [65] 0 0
D 21.781381274 _13_ RTR  IFQ 5 1 cbr 230 [0 0 0 0] ------- [13:1 5:0 30 0] [1] 0 0
s 21.792581274 _13_ AGT  --- 5 66 cbr 210 [0 0 0 0] ------- [13:1 5:0 32 0] [66] 0 0
D 21.792581274 _13_ RTR  IFQ 5 2 cbr 230 [0 0 0 0] ------- [13:1 5:0 30 0] [2] 0 0
s 21.803781274 _13_ AGT  --- 5 67 cbr 210 [0 0 0 0] ------- [13:1 5:0 32 0] [67] 0 0
D 21.803781274 _13_ RTR  IFQ 5 3 cbr 230 [0 0 0 0] ------- [13:1 5:0 30 0] [3] 0 0
s 21.814981274 _13_ AGT  --- 5 68 cbr 210 [0 0 0 0] ------- [13:1 5:0 32 0] [68] 0 0
D 21.814981274 _13_ RTR  IFQ 5 4 cbr 230 [0 0 0 0] ------- [13:1 5:0 30 0] [4] 0 0
s 21.826181274 _13_ AGT  --- 5 69 cbr 210 [0 0 0 0] ------- [13:1 5:0 32 0] [69] 0 0
D 21.826181274 _13_ RTR  IFQ 5 5 cbr 230 [0 0 0 0] ------- [13:1 5:0 30 0] [5] 0 0
s 21.837381274 _13_ AGT  --- 5 70 cbr 210 [0 0 0 0] ------- [13:1 5:0 32 0] [70] 0 0
D 21.837381274 _13_ RTR  IFQ 5 6 cbr 230 [0 0 0 0] ------- [13:1 5:0 30 0] [6] 0 0
s 21.848581274 _13_ AGT  --- 5 71 cbr 210 [0 0 0 0] ------- [13:1 5:0 32 0] [71] 0 0
D 21.848581274 _13_ RTR  IFQ 5 7 cbr 230 [0 0 0 0] ------- [13:1 5:0 30 0] [7] 0 0
s 21.859781274 _13_ AGT  --- 5 72 cbr 210 [0 0 0 0] ------- [13:1 5:0 32 0] [72] 0 0
D 21.859781274 _13_ RTR  IFQ 5 8 cbr 230 [0 0 0 0] ------- [13:1 5:0 30 0] [8] 0 0
s 21.870981274 _13_ AGT  --- 5 73 cbr 210 [0 0 0 0] ------- [13:1 5:0 32 0] [73] 0 0
D 21.870981274 _13_ RTR  IFQ 5 9 cbr 230 [0 0 0 0] ------- [13:1 5:0 30 0] [9] 0 0
s 21.882181274 _13_ AGT  --- 5 74 cbr 210 [0 0 0 0] ------- [13:1 5:0 32 0] [74] 0 0
D 21.882181274 _13_ RTR  IFQ 5 10 cbr 230 [0 0 0 0] ------- [13:1 5:0 30 0] [10] 0 0
s 21.893381274 _13_ AGT  --- 5 75 cbr 210 [0 0 0 0] ------- [13:1 5:0 32 0] [75] 0 0
D 21.893381274 _13_ RTR  IFQ 5 11 cbr 230 [0 0 0 0] ------- [13:1 5:0 30 0] [11] 0 0
s 21.904581274 _13_ AGT  --- 5 76 cbr 210 [0 0 0 0] ------- [13:1 5:0 32 0] [76] 0 0
D 21.904581274 _13_ RTR  IFQ 5 12 cbr 230 [0 0 0 0] ------- [13:1 5:0 30 0] [12] 0 0
s 21.915781274 _13_ AGT  --- 5 77 cbr 210 [0 0 0 0] ------- [13:1 5:0 32 0] [77] 0 0
D 21.915781274 _13_ RTR  IFQ 5 13 cbr 230 [0 0 0 0] ------- [13:1 5:0 30 0] [13] 0 0
s 21.926981274 _13_ AGT  --- 5 78 cbr 210 [0 0 0 0] ------- [13:1 5:0 32 0] [78] 0 0
D 21.926981274 _13_ RTR  IFQ 5 14 cbr 230 [0 0 0 0] ------- [13:1 5:0 30 0] [14] 0 0
s 21.938181274 _13_ AGT  --- 5 79 cbr 210 [0 0 0 0] ------- [13:1 5:0 32 0] [79] 0 0
D 21.938181274 _13_ RTR  IFQ 5 15 cbr 230 [0 0 0 0] ------- [13:1 5:0 30 0] [15] 0 0
s 21.949381274 _13_ AGT  --- 5 80 cbr 210 [0 0 0 0] ------- [13:1 5:0 32 0] [80] 0 0
D 21.949381274 _13_ RTR  IFQ 5 16 cbr 230 [0 0 0 0] ------- [13:1 5:0 30 0] [16] 0 0
s 21.960581274 _13_ AGT  --- 5 81 cbr 210 [0 0 0 0] ------- [13:1 5:0 32 0] [81] 0 0
D 21.960581274 _13_ RTR  IFQ 5 17 cbr 230 [0 0 0 0] ------- [13:1 5:0 30 0] [17] 0 0
s 21.971781274 _13_ AGT  --- 5 82 cbr 210 [0 0 0 0] ------- [13:1 5:0 32 0] [82] 0 0
D 21.971781274 _13_ RTR  IFQ 5 18 cbr 230 [0 0 0 0] ------- [13:1 5:0 30 0] [18] 0 0
s 21.982981274 _13_ AGT  --- 5 83 cbr 210 [0 0 0 0] ------- [13:1 5:0 32 0] [83] 0 0
D 21.982981274 _13_ RTR  IFQ 5 19 cbr 230 [0 0 0 0] ------- [13:1 5:0 30 0] [19] 0 0
s 21.994181274 _13_ AGT  --- 5 84 cbr 210 [0 0 0 0] ------- [13:1 5:0 32 0] [84] 0 0
D 21.994181274 _13_ RTR  IFQ 5 20 cbr 230 [0 0 0 0] ------- [13:1 5:0 30 0] [20] 0 0
s 22.005381274 _13_ AGT  --- 5 85 cbr 210 [0 0 0 0] ------- [13:1 5:0 32 0] [85] 0 0
D 22.005381274 _13_ RTR  IFQ 5 21 cbr 230 [0 0 0 0] ------- [13:1 5:0 30 0] [21] 0 0
s 22.016581274 _13_ AGT  --- 5 86 cbr 210 [0 0 0 0] ------- [13:1 5:0 32 0] [86] 0 0
D 22.016581274 _13_ RTR  IFQ 5 22 cbr 230 [0 0 0 0] ------- [13:1 5:0 30 0] [22] 0 0
s 22.027781274 _13_ AGT  --- 5 87 cbr 210 [0 0 0 0] ------- [13:1 5:0 32 0] [87] 0 0
D 22.027781274 _13_ RTR  IFQ 5 23 cbr 230 [0 0 0 0] ------- [13:1 5:0 30 0] [23] 0 0
s 22.038981274 _13_ AGT  --- 5 88 cbr 210 [0 0 0 0] ------- [13:1 5:0 32 0] [88] 0 0
D 22.038981274 _13_ RTR  IFQ 5 24 cbr 230 [0 0 0 0] ------- [13:1 5:0 30 0] [24] 0 0
s 22.050181274 _13_ AGT  --- 5 89 cbr 210 [0 0 0 0] ------- [13:1 5:0 32 0] [89] 0 0
D 22.050181274 _13_ RTR  IFQ 5 25 cbr 230 [0 0 0 0] ------- [13:1 5:0 30 0] [25] 0 0
s 22.061381274 _13_ AGT  --- 5 90 cbr 210 [0 0 0 0] ------- [13:1 5:0 32 0] [90] 0 0
D 22.061381274 _13_ RTR  IFQ 5 26 cbr 230 [0 0 0 0] ------- [13:1 5:0 30 0] [26] 0 0
s 22.072581274 _13_ AGT  --- 5 91 cbr 210 [0 0 0 0] ------- [13:1 5:0 32 0] [91] 0 0
D 22.072581274 _13_ RTR  IFQ 5 27 cbr 230 [0 0 0 0] ------- [13:1 5:0 30 0] [27] 0 0
s 22.083781274 _13_ AGT  --- 5 92 cbr 210 [0 0 0 0] ------- [13:1 5:0 32 0] [92] 0 0
D 22.083781274 _13_ RTR  IFQ 5 28 cbr 230 [0 0 0 0] ------- [13:1 5:0 30 0] [28] 0 0
s 22.094981274 _13_ AGT  --- 5 93 cbr 210 [0 0 0 0] ------- [13:1 5:0 32 0] [93] 0 0
D 22.094981274 _13_ RTR  IFQ 5 29 cbr 230 [0 0 0 0] ------- [13:1 5:0 30 0] [29] 0 0
s 22.106181274 _13_ AGT  --- 5 94 cbr 210 [0 0 0 0] ------- [13:1 5:0 32 0] [94] 0 0
D 22.106181274 _13_ RTR  IFQ 5 30 cbr 230 [0 0 0 0] ------- [13:1 5:0 30 0] [30] 0 0
s 22.117381274 _13_ AGT  --- 5 95 cbr 210 [0 0 0 0] ------- [13:1 5:0 32 0] [95] 0 0
D 22.117381274 _13_ RTR  IFQ 5 31 cbr 230 [0 0 0 0] ------- [13:1 5:0 30 0] [31] 0 0
s 22.128581274 _13_ AGT  --- 5 96 cbr 210 [0 0 0 0] ------- [13:1 5:0 32 0] [96] 0 0
D 22.128581274 _13_ RTR  IFQ 5 32 cbr 230 [0 0 0 0] ------- [13:1 5:0 30 0] [32] 0 0
s 22.139781274 _13_ AGT  --- 5 97 cbr 210 [0 0 0 0] ------- [13:1 5:0 32 0] [97] 0 0
D 22.139781274 _13_ RTR  IFQ 5 33 cbr 230 [0 0 0 0] ------- [13:1 5:0 30 0] [33] 0 0
s 22.150981274 _13_ AGT  --- 5 98 cbr 210 [0 0 0 0] ------- [13:1 5:0 32 0] [98] 0 0
D 22.150981274 _13_ RTR  IFQ 5 34 cbr 230 [0 0 0 0] ------- [13:1 5:0 30 0] [34] 0 0
s 22.162181274 _13_ AGT  --- 5 99 cbr 210 [0 0 0 0] ------- [13:1 5:0 32 0] [99] 0 0
D 22.162181274 _13_ RTR  IFQ 5 35 cbr 230 [0 0 0 0] ------- [13:1 5:0 30 0] [35] 0 0
s 22.173381274 _13_ AGT  --- 5 100 cbr 210 [0 0 0 0] ------- [13:1 5:0 32 0] [100] 0 0
D 22.173381274 _13_ RTR  IFQ 5 36 cbr 230 [0 0 0 0] ------- [13:1 5:0 30 0] [36] 0 0
s 22.184581274 _13_ AGT  --- 5 101 cbr 210 [0 0 0 0] ------- [13:1 5:0 32 0] [101] 0 0
D 22.184581274 _13_ RTR  IFQ 5 37 cbr 230 [0 0 0 0] ------- [13:1 5:0 30 0] [37] 0 0
s 22.195781274 _13_ AGT  --- 5 102 cbr 210 [0 0 0 0] ------- [13:1 5:0 32 0] [102] 0 0
D 22.195781274 _13_ RTR  IFQ 5 38 cbr 230 [0 0 0 0] ------- [13:1 5:0 30 0] [38] 0 0
s 22.206981274 _13_ AGT  --- 5 103 cbr 210 [0 0 0 0] ------- [13:1 5:0 32 0] [103] 0 0
D 22.206981274 _13_ RTR  IFQ 5 39 cbr 230 [0 0 0 0] ------- [13:1 5:0 30 0] [39] 0 0
s 22.218181274 _13_ AGT  --- 5 104 cbr 210 [0 0 0 0] ------- [13:1 5:0 32 0] [104] 0 0
D 22.218181274 _13_ RTR  IFQ 5 40 cbr 230 [0 0 0 0] ------- [13:1 5:0 30 0] [40] 0 0
s 22.229381274 _13_ AGT  --- 5 105 cbr 210 [0 0 0 0] ------- [13:1 5:0 32 0] [105] 0 0
D 22.229381274 _13_ RTR  IFQ 5 41 cbr 230 [0 0 0 0] ------- [13:1 5:0 30 0] [41] 0 0
s 22.240581274 _13_ AGT  --- 5 106 cbr 210 [0 0 0 0] ------- [13:1 5:0 32 0] [106] 0 0
D 22.240581274 _13_ RTR  IFQ 5 42 cbr 230 [0 0 0 0] ------- [13:1 5:0 30 0] [42] 0 0
s 22.251781274 _13_ AGT  --- 5 107 cbr 210 [0 0 0 0] ------- [13:1 5:0 32 0] [107] 0 0
D 22.251781274 _13_ RTR  IFQ 5 43 cbr 230 [0 0 0 0] ------- [13:1 5:0 30 0] [43] 0 0
s 22.262981274 _13_ AGT  --- 5 108 cbr 210 [0 0 0 0] ------- [13:1 5:0 32 0] [108] 0 0
D 22.262981274 _13_ RTR  IFQ 5 44 cbr 230 [0 0 0 0] ------- [13:1 5:0 30 0] [44] 0 0
s 22.274181274 _13_ AGT  --- 5 109 cbr 210 [0 0 0 0] ------- [13:1 5:0 32 0] [109] 0 0
D 22.274181274 _13_ RTR  IFQ 5 45 cbr 230 [0 0 0 0] ------- [13:1 5:0 30 0] [45] 0 0
s 22.285381274 _13_ AGT  --- 5 110 cbr 210 [0 0 0 0] ------- [13:1 5:0 32 0] [110] 0 0
D 22.285381274 _13_ RTR  IFQ 5 46 cbr 230 [0 0 0 0] ------- [13:1 5:0 30 0] [46] 0 0
s 22.296581274 _13_ AGT  --- 5 111 cbr 210 [0 0 0 0] ------- [13:1 5:0 32 0] [111] 0 0
D 22.296581274 _13_ RTR  IFQ 5 47 cbr 230 [0 0 0 0] ------- [13:1 5:0 30 0] [47] 0 0
s 22.307781274 _13_ AGT  --- 5 112 cbr 210 [0 0 0 0] ------- [13:1 5:0 32 0] [112] 0 0
D 22.307781274 _13_ RTR  IFQ 5 48 cbr 230 [0 0 0 0] ------- [13:1 5:0 30 0] [48] 0 0
s 22.318981274 _13_ AGT  --- 5 113 cbr 210 [0 0 0 0] ------- [13:1 5:0 32 0] [113] 0 0
D 22.318981274 _13_ RTR  IFQ 5 49 cbr 230 [0 0 0 0] ------- [13:1 5:0 30 0] [49] 0 0
s 22.330181274 _13_ AGT  --- 5 114 cbr 210 [0 0 0 0] ------- [13:1 5:0 32 0] [114] 0 0
D 22.330181274 _13_ RTR  IFQ 5 50 cbr 230 [0 0 0 0] ------- [13:1 5:0 30 0] [50] 0 0
s 22.341381274 _13_ AGT  --- 5 115 cbr 210 [0 0 0 0] ------- [13:1 5:0 32 0] [115] 0 0
D 22.341381274 _13_ RTR  IFQ 5 51 cbr 230 [0 0 0 0] ------- [13:1 5:0 30 0] [51] 0 0
s 22.352581274 _13_ AGT  --- 5 116 cbr 210 [0 0 0 0] ------- [13:1 5:0 32 0] [116] 0 0
D 22.352581274 _13_ RTR  IFQ 5 52 cbr 230 [0 0 0 0] ------- [13:1 5:0 30 0] [52] 0 0
s 22.363781274 _13_ AGT  --- 5 117 cbr 210 [0 0 0 0] ------- [13:1 5:0 32 0] [117] 0 0
D 22.363781274 _13_ RTR  IFQ 5 53 cbr 230 [0 0 0 0] ------- [13:1 5:0 30 0] [53] 0 0
s 22.374981274 _13_ AGT  --- 5 118 cbr 210 [0 0 0 0] ------- [13:1 5:0 32 0] [118] 0 0
D 22.374981274 _13_ RTR  IFQ 5 54 cbr 230 [0 0 0 0] ------- [13:1 5:0 30 0] [54] 0 0
s 22.386181274 _13_ AGT  --- 5 119 cbr 210 [0 0 0 0] ------- [13:1 5:0 32 0] [119] 0 0
D 22.386181274 _13_ RTR  IFQ 5 55 cbr 230 [0 0 0 0] ------- [13:1 5:0 30 0] [55] 0 0
s 22.397381274 _13_ AGT  --- 5 120 cbr 210 [0 0 0 0] ------- [13:1 5:0 32 0] [120] 0 0
D 22.397381274 _13_ RTR  IFQ 5 56 cbr 230 [0 0 0 0] ------- [13:1 5:0 30 0] [56] 0 0
s 22.408581274 _13_ AGT  --- 5 121 cbr 210 [0 0 0 0] ------- [13:1 5:0 32 0] [121] 0 0
D 22.408581274 _13_ RTR  IFQ 5 57 cbr 230 [0 0 0 0] ------- [13:1 5:0 30 0] [57] 0 0
s 22.419781274 _13_ AGT  --- 5 122 cbr 210 [0 0 0 0] ------- [13:1 5:0 32 0] [122] 0 0
D 22.419781274 _13_ RTR  IFQ 5 58 cbr 230 [0 0 0 0] ------- [13:1 5:0 30 0] [58] 0 0
s 22.430981274 _13_ AGT  --- 5 123 cbr 210 [0 0 0 0] ------- [13:1 5:0 32 0] [123] 0 0
D 22.430981274 _13_ RTR  IFQ 5 59 cbr 230 [0 0 0 0] ------- [13:1 5:0 30 0] [59] 0 0
s 22.442181274 _13_ AGT  --- 5 124 cbr 210 [0 0 0 0] ------- [13:1 5:0 32 0] [124] 0 0
D 22.442181274 _13_ RTR  IFQ 5 60 cbr 230 [0 0 0 0] ------- [13:1 5:0 30 0] [60] 0 0
s 22.453381274 _13_ AGT  --- 5 125 cbr 210 [0 0 0 0] ------- [13:1 5:0 32 0] [125] 0 0
D 22.453381274 _13_ RTR  IFQ 5 61 cbr 230 [0 0 0 0] ------- [13:1 5:0 30 0] [61] 0 0
s 22.464581274 _13_ AGT  --- 5 126 cbr 210 [0 0 0 0] ------- [13:1 5:0 32 0] [126] 0 0
D 22.464581274 _13_ RTR  IFQ 5 62 cbr 230 [0 0 0 0] ------- [13:1 5:0 30 0] [62] 0 0
s 22.475781274 _13_ AGT  --- 5 127 cbr 210 [0 0 0 0] ------- [13:1 5:0 32 0] [127] 0 0
D 22.475781274 _13_ RTR  IFQ 5 63 cbr 230 [0 0 0 0] ------- [13:1 5:0 30 0] [63] 0 0
s 22.486981274 _13_ AGT  --- 5 128 cbr 210 [0 0 0 0] ------- [13:1 5:0 32 0] [128] 0 0
D 22.486981274 _13_ RTR  IFQ 5 64 cbr 230 [0 0 0 0] ------- [13:1 5:0 30 0] [64] 0 0
s 22.498181274 _13_ AGT  --- 5 129 cbr 210 [0 0 0 0] ------- [13:1 5:0 32 0] [129] 0 0
D 22.498181274 _13_ RTR  IFQ 5 65 cbr 230 [0 0 0 0] ------- [13:1 5:0 30 0] [65] 0 0
s 22.509381274 _13_ AGT  --- 5 130 cbr 210 [0 0 0 0] ------- [13:1 5:0 32 0] [130] 0 0
D 22.509381274 _13_ RTR  IFQ 5 66 cbr 230 [0 0 0 0] ------- [13:1 5:0 30 0] [66] 0 0
s 22.520581274 _13_ AGT  --- 5 131 cbr 210 [0 0 0 0] ------- [13:1 5:0 32 0] [131] 0 0
D 22.520581274 _13_ RTR  IFQ 5 67 cbr 230 [0 0 0 0] ------- [13:1 5:0 30 0] [67] 0 0
s 22.531781274 _13_ AGT  --- 5 132 cbr 210 [0 0 0 0] ------- [13:1 5:0 32 0] [132] 0 0
D 22.531781274 _13_ RTR  IFQ 5 68 cbr 230 [0 0 0 0] ------- [13:1 5:0 30 0] [68] 0 0
s 22.542981274 _13_ AGT  --- 5 133 cbr 210 [0 0 0 0] ------- [13:1 5:0 32 0] [133] 0 0
D 22.542981274 _13_ RTR  IFQ 5 69 cbr 230 [0 0 0 0] ------- [13:1 5:0 30 0] [69] 0 0
s 22.554181274 _13_ AGT  --- 5 134 cbr 210 [0 0 0 0] ------- [13:1 5:0 32 0] [134] 0 0
D 22.554181274 _13_ RTR  IFQ 5 70 cbr 230 [0 0 0 0] ------- [13:1 5:0 30 0] [70] 0 0
s 22.565381274 _13_ AGT  --- 5 135 cbr 210 [0 0 0 0] ------- [13:1 5:0 32 0] [135] 0 0
D 22.565381274 _13_ RTR  IFQ 5 71 cbr 230 [0 0 0 0] ------- [13:1 5:0 30 0] [71] 0 0
s 22.576581274 _13_ AGT  --- 5 136 cbr 210 [0 0 0 0] ------- [13:1 5:0 32 0] [136] 0 0
D 22.576581274 _13_ RTR  IFQ 5 72 cbr 230 [0 0 0 0] ------- [13:1 5:0 30 0] [72] 0 0
s 22.587781274 _13_ AGT  --- 5 137 cbr 210 [0 0 0 0] ------- [13:1 5:0 32 0] [137] 0 0
D 22.587781274 _13_ RTR  IFQ 5 73 cbr 230 [0 0 0 0] ------- [13:1 5:0 30 0] [73] 0 0
s 22.598981274 _13_ AGT  --- 5 138 cbr 210 [0 0 0 0] ------- [13:1 5:0 32 0] [138] 0 0
D 22.598981274 _13_ RTR  IFQ 5 74 cbr 230 [0 0 0 0] ------- [13:1 5:0 30 0] [74] 0 0
s 22.610181274 _13_ AGT  --- 5 139 cbr 210 [0 0 0 0] ------- [13:1 5:0 32 0] [139] 0 0
D 22.610181274 _13_ RTR  IFQ 5 75 cbr 230 [0 0 0 0] ------- [13:1 5:0 30 0] [75] 0 0
s 22.621381274 _13_ AGT  --- 5 140 cbr 210 [0 0 0 0] ------- [13:1 5:0 32 0] [140] 0 0
D 22.621381274 _13_ RTR  IFQ 5 76 cbr 230 [0 0 0 0] ------- [13:1 5:0 30 0] [76] 0 0
s 22.632581274 _13_ AGT  --- 5 141 cbr 210 [0 0 0 0] ------- [13:1 5:0 32 0] [141] 0 0
D 22.632581274 _13_ RTR  IFQ 5 77 cbr 230 [0 0 0 0] ------- [13:1 5:0 30 0] [77] 0 0
s 22.643781274 _13_ AGT  --- 5 142 cbr 210 [0 0 0 0] ------- [13:1 5:0 32 0] [142] 0 0
D 22.643781274 _13_ RTR  IFQ 5 78 cbr 230 [0 0 0 0] ------- [13:1 5:0 30 0] [78] 0 0
s 22.654981274 _13_ AGT  --- 5 143 cbr 210 [0 0 0 0] ------- [13:1 5:0 32 0] [143] 0 0
D 22.654981274 _13_ RTR  IFQ 5 79 cbr 230 [0 0 0 0] ------- [13:1 5:0 30 0] [79] 0 0
s 22.666181274 _13_ AGT  --- 5 144 cbr 210 [0 0 0 0] ------- [13:1 5:0 32 0] [144] 0 0
D 22.666181274 _13_ RTR  IFQ 5 80 cbr 230 [0 0 0 0] ------- [13:1 5:0 30 0] [80] 0 0
s 22.677381274 _13_ AGT  --- 5 145 cbr 210 [0 0 0 0] ------- [13:1 5:0 32 0] [145] 0 0
D 22.677381274 _13_ RTR  IFQ 5 81 cbr 230 [0 0 0 0] ------- [13:1 5:0 30 0] [81] 0 0
s 22.688581274 _13_ AGT  --- 5 146 cbr 210 [0 0 0 0] ------- [13:1 5:0 32 0] [146] 0 0
D 22.688581274 _13_ RTR  IFQ 5 82 cbr 230 [0 0 0 0] ------- [13:1 5:0 30 0] [82] 0 0
s 22.699781274 _13_ AGT  --- 5 147 cbr 210 [0 0 0 0] ------- [13:1 5:0 32 0] [147] 0 0
D 22.699781274 _13_ RTR  IFQ 5 83 cbr 230 [0 0 0 0] ------- [13:1 5:0 30 0] [83] 0 0
s 22.710981274 _13_ AGT  --- 5 148 cbr 210 [0 0 0 0] ------- [13:1 5:0 32 0] [148] 0 0
D 22.710981274 _13_ RTR  IFQ 5 84 cbr 230 [0 0 0 0] ------- [13:1 5:0 30 0] [84] 0 0
s 22.722181274 _13_ AGT  --- 5 149 cbr 210 [0 0 0 0] ------- [13:1 5:0 32 0] [149] 0 0
D 22.722181274 _13_ RTR  IFQ 5 85 cbr 230 [0 0 0 0] ------- [13:1 5:0 30 0] [85] 0 0
s 22.733381274 _13_ AGT  --- 5 150 cbr 210 [0 0 0 0] ------- [13:1 5:0 32 0] [150] 0 0
D 22.733381274 _13_ RTR  IFQ 5 86 cbr 230 [0 0 0 0] ------- [13:1 5:0 30 0] [86] 0 0
s 22.744581274 _13_ AGT  --- 5 151 cbr 210 [0 0 0 0] ------- [13:1 5:0 32 0] [151] 0 0
D 22.744581274 _13_ RTR  IFQ 5 87 cbr 230 [0 0 0 0] ------- [13:1 5:0 30 0] [87] 0 0
s 22.755781274 _13_ AGT  --- 5 152 cbr 210 [0 0 0 0] ------- [13:1 5:0 32 0] [152] 0 0
D 22.755781274 _13_ RTR  IFQ 5 88 cbr 230 [0 0 0 0] ------- [13:1 5:0 30 0] [88] 0 0
s 22.766981274 _13_ AGT  --- 5 153 cbr 210 [0 0 0 0] ------- [13:1 5:0 32 0] [153] 0 0
D 22.766981274 _13_ RTR  IFQ 5 89 cbr 230 [0 0 0 0] ------- [13:1 5:0 30 0] [89] 0 0
s 22.778181274 _13_ AGT  --- 5 154 cbr 210 [0 0 0 0] ------- [13:1 5:0 32 0] [154] 0 0
D 22.778181274 _13_ RTR  IFQ 5 90 cbr 230 [0 0 0 0] ------- [13:1 5:0 30 0] [90] 0 0
s 22.789381274 _13_ AGT  --- 5 155 cbr 210 [0 0 0 0] ------- [13:1 5:0 32 0] [155] 0 0
D 22.789381274 _13_ RTR  IFQ 5 91 cbr 230 [0 0 0 0] ------- [13:1 5:0 30 0] [91] 0 0
s 22.800581274 _13_ AGT  --- 5 156 cbr 210 [0 0 0 0] ------- [13:1 5:0 32 0] [156] 0 0
D 22.800581274 _13_ RTR  IFQ 5 92 cbr 230 [0 0 0 0] ------- [13:1 5:0 30 0] [92] 0 0
s 22.811781274 _13_ AGT  --- 5 157 cbr 210 [0 0 0 0] ------- [13:1 5:0 32 0] [157] 0 0
D 22.811781274 _13_ RTR  IFQ 5 93 cbr 230 [0 0 0 0] ------- [13:1 5:0 30 0] [93] 0 0
s 22.822981274 _13_ AGT  --- 5 158 cbr 210 [0 0 0 0] ------- [13:1 5:0 32 0] [158] 0 0
D 22.822981274 _13_ RTR  IFQ 5 94 cbr 230 [0 0 0 0] ------- [13:1 5:0 30 0] [94] 0 0
s 22.834181274 _13_ AGT  --- 5 159 cbr 210 [0 0 0 0] ------- [13:1 5:0 32 0] [159] 0 0
D 22.834181274 _13_ RTR  IFQ 5 95 cbr 230 [0 0 0 0] ------- [13:1 5:0 30 0] [95] 0 0
s 22.845381274 _13_ AGT  --- 5 160 cbr 210 [0 0 0 0] ------- [13:1 5:0 32 0] [160] 0 0
D 22.845381274 _13_ RTR  IFQ 5 96 cbr 230 [0 0 0 0] ------- [13:1 5:0 30 0] [96] 0 0
s 22.856581274 _13_ AGT  --- 5 161 cbr 210 [0 0 0 0] ------- [13:1 5:0 32 0] [161] 0 0
D 22.856581274 _13_ RTR  IFQ 5 97 cbr 230 [0 0 0 0] ------- [13:1 5:0 30 0] [97] 0 0
s 22.867781274 _13_ AGT  --- 5 162 cbr 210 [0 0 0 0] ------- [13:1 5:0 32 0] [162] 0 0
D 22.867781274 _13_ RTR  IFQ 5 98 cbr 230 [0 0 0 0] ------- [13:1 5:0 30 0] [98] 0 0
s 22.878981274 _13_ AGT  --- 5 163 cbr 210 [0 0 0 0] ------- [13:1 5:0 32 0] [163] 0 0
D 22.878981274 _13_ RTR  IFQ 5 99 cbr 230 [0 0 0 0] ------- [13:1 5:0 30 0] [99] 0 0
s 22.890181274 _13_ AGT  --- 5 164 cbr 210 [0 0 0 0] ------- [13:1 5:0 32 0] [164] 0 0
D 22.890181274 _13_ RTR  IFQ 5 100 cbr 230 [0 0 0 0] ------- [13:1 5:0 30 0] [100] 0 0
s 22.901381274 _13_ AGT  --- 5 165 cbr 210 [0 0 0 0] ------- [13:1 5:0 32 0] [165] 0 0
D 22.901381274 _13_ RTR  IFQ 5 101 cbr 230 [0 0 0 0] ------- [13:1 5:0 30 0] [101] 0 0
s 22.912581274 _13_ AGT  --- 5 166 cbr 210 [0 0 0 0] ------- [13:1 5:0 32 0] [166] 0 0
D 22.912581274 _13_ RTR  IFQ 5 102 cbr 230 [0 0 0 0] ------- [13:1 5:0 30 0] [102] 0 0
s 22.923781274 _13_ AGT  --- 5 167 cbr 210 [0 0 0 0] ------- [13:1 5:0 32 0] [167] 0 0
D 22.923781274 _13_ RTR  IFQ 5 103 cbr 230 [0 0 0 0] ------- [13:1 5:0 30 0] [103] 0 0
s 22.934981274 _13_ AGT  --- 5 168 cbr 210 [0 0 0 0] ------- [13:1 5:0 32 0] [168] 0 0
D 22.934981274 _13_ RTR  IFQ 5 104 cbr 230 [0 0 0 0] ------- [13:1 5:0 30 0] [104] 0 0
s 22.946181274 _13_ AGT  --- 5 169 cbr 210 [0 0 0 0] ------- [13:1 5:0 32 0] [169] 0 0
D 22.946181274 _13_ RTR  IFQ 5 105 cbr 230 [0 0 0 0] ------- [13:1 5:0 30 0] [105] 0 0
s 22.957381274 _13_ AGT  --- 5 170 cbr 210 [0 0 0 0] ------- [13:1 5:0 32 0] [170] 0 0
D 22.957381274 _13_ RTR  IFQ 5 106 cbr 230 [0 0 0 0] ------- [13:1 5:0 30 0] [106] 0 0
s 22.968581274 _13_ AGT  --- 5 171 cbr 210 [0 0 0 0] ------- [13:1 5:0 32 0] [171] 0 0
D 22.968581274 _13_ RTR  IFQ 5 107 cbr 230 [0 0 0 0] ------- [13:1 5:0 30 0] [107] 0 0
s 22.979781274 _13_ AGT  --- 5 172 cbr 210 [0 0 0 0] ------- [13:1 5:0 32 0] [172] 0 0
D 22.979781274 _13_ RTR  IFQ 5 108 cbr 230 [0 0 0 0] ------- [13:1 5:0 30 0] [108] 0 0
s 22.990981274 _13_ AGT  --- 5 173 cbr 210 [0 0 0 0] ------- [13:1 5:0 32 0] [173] 0 0
D 22.990981274 _13_ RTR  IFQ 5 109 cbr 230 [0 0 0 0] ------- [13:1 5:0 30 0] [109] 0 0
s 23.002181274 _13_ AGT  --- 5 174 cbr 210 [0 0 0 0] ------- [13:1 5:0 32 0] [174] 0 0
D 23.002181274 _13_ RTR  IFQ 5 110 cbr 230 [0 0 0 0] ------- [13:1 5:0 30 0] [110] 0 0
s 23.013381274 _13_ AGT  --- 5 175 cbr 210 [0 0 0 0] ------- [13:1 5:0 32 0] [175] 0 0
D 23.013381274 _13_ RTR  IFQ 5 111 cbr 230 [0 0 0 0] ------- [13:1 5:0 30 0] [111] 0 0
s 23.024581274 _13_ AGT  --- 5 176 cbr 210 [0 0 0 0] ------- [13:1 5:0 32 0] [176] 0 0
D 23.024581274 _13_ RTR  IFQ 5 112 cbr 230 [0 0 0 0] ------- [13:1 5:0 30 0] [112] 0 0
s 23.035781274 _13_ AGT  --- 5 177 cbr 210 [0 0 0 0] ------- [13:1 5:0 32 0] [177] 0 0
D 23.035781274 _13_ RTR  IFQ 5 113 cbr 230 [0 0 0 0] ------- [13:1 5:0 30 0] [113] 0 0
s 23.046981274 _13_ AGT  --- 5 178 cbr 210 [0 0 0 0] ------- [13:1 5:0 32 0] [178] 0 0
D 23.046981274 _13_ RTR  IFQ 5 114 cbr 230 [0 0 0 0] ------- [13:1 5:0 30 0] [114] 0 0
s 23.058181274 _13_ AGT  --- 5 179 cbr 210 [0 0 0 0] ------- [13:1 5:0 32 0] [179] 0 0
D 23.058181274 _13_ RTR  IFQ 5 115 cbr 230 [0 0 0 0] ------- [13:1 5:0 30 0] [115] 0 0
s 23.069381274 _13_ AGT  --- 5 180 cbr 210 [0 0 0 0] ------- [13:1 5:0 32 0] [180] 0 0
D 23.069381274 _13_ RTR  IFQ 5 116 cbr 230 [0 0 0 0] ------- [13:1 5:0 30 0] [116] 0 0
s 23.080581274 _13_ AGT  --- 5 181 cbr 210 [0 0 0 0] ------- [13:1 5:0 32 0] [181] 0 0
D 23.080581274 _13_ RTR  IFQ 5 117 cbr 230 [0 0 0 0] ------- [13:1 5:0 30 0] [117] 0 0
s 23.091781274 _13_ AGT  --- 5 182 cbr 210 [0 0 0 0] ------- [13:1 5:0 32 0] [182] 0 0
D 23.091781274 _13_ RTR  IFQ 5 118 cbr 230 [0 0 0 0] ------- [13:1 5:0 30 0] [118] 0 0
s 23.102981274 _13_ AGT  --- 5 183 cbr 210 [0 0 0 0] ------- [13:1 5:0 32 0] [183] 0 0
D 23.102981274 _13_ RTR  IFQ 5 119 cbr 230 [0 0 0 0] ------- [13:1 5:0 30 0] [119] 0 0
s 23.114181274 _13_ AGT  --- 5 184 cbr 210 [0 0 0 0] ------- [13:1 5:0 32 0] [184] 0 0
D 23.114181274 _13_ RTR  IFQ 5 120 cbr 230 [0 0 0 0] ------- [13:1 5:0 30 0] [120] 0 0
s 23.125381274 _13_ AGT  --- 5 185 cbr 210 [0 0 0 0] ------- [13:1 5:0 32 0] [185] 0 0
D 23.125381274 _13_ RTR  IFQ 5 121 cbr 230 [0 0 0 0] ------- [13:1 5:0 30 0] [121] 0 0
s 23.136581274 _13_ AGT  --- 5 186 cbr 210 [0 0 0 0] ------- [13:1 5:0 32 0] [186] 0 0
D 23.136581274 _13_ RTR  IFQ 5 122 cbr 230 [0 0 0 0] ------- [13:1 5:0 30 0] [122] 0 0
s 23.147781274 _13_ AGT  --- 5 187 cbr 210 [0 0 0 0] ------- [13:1 5:0 32 0] [187] 0 0
D 23.147781274 _13_ RTR  IFQ 5 123 cbr 230 [0 0 0 0] ------- [13:1 5:0 30 0] [123] 0 0
s 23.158981274 _13_ AGT  --- 5 188 cbr 210 [0 0 0 0] ------- [13:1 5:0 32 0] [188] 0 0
D 23.158981274 _13_ RTR  IFQ 5 124 cbr 230 [0 0 0 0] ------- [13:1 5:0 30 0] [124] 0 0
s 23.170181274 _13_ AGT  --- 5 189 cbr 210 [0 0 0 0] ------- [13:1 5:0 32 0] [189] 0 0
D 23.170181274 _13_ RTR  IFQ 5 125 cbr 230 [0 0 0 0] ------- [13:1 5:0 30 0] [125] 0 0
s 23.181381274 _13_ AGT  --- 5 190 cbr 210 [0 0 0 0] ------- [13:1 5:0 32 0] [190] 0 0
D 23.181381274 _13_ RTR  IFQ 5 126 cbr 230 [0 0 0 0] ------- [13:1 5:0 30 0] [126] 0 0
s 23.192581274 _13_ AGT  --- 5 191 cbr 210 [0 0 0 0] ------- [13:1 5:0 32 0] [191] 0 0
D 23.192581274 _13_ RTR  IFQ 5 127 cbr 230 [0 0 0 0] ------- [13:1 5:0 30 0] [127] 0 0
s 23.203781274 _13_ AGT  --- 5 192 cbr 210 [0 0 0 0] ------- [13:1 5:0 32 0] [192] 0 0
D 23.203781274 _13_ RTR  IFQ 5 128 cbr 230 [0 0 0 0] ------- [13:1 5:0 30 0] [128] 0 0
s 23.214981274 _13_ AGT  --- 5 193 cbr 210 [0 0 0 0] ------- [13:1 5:0 32 0] [193] 0 0
D 23.214981274 _13_ RTR  IFQ 5 129 cbr 230 [0 0 0 0] ------- [13:1 5:0 30 0] [129] 0 0
s 23.226181274 _13_ AGT  --- 5 194 cbr 210 [0 0 0 0] ------- [13:1 5:0 32 0] [194] 0 0
D 23.226181274 _13_ RTR  IFQ 5 130 cbr 230 [0 0 0 0] ------- [13:1 5:0 30 0] [130] 0 0
s 23.237381274 _13_ AGT  --- 5 195 cbr 210 [0 0 0 0] ------- [13:1 5:0 32 0] [195] 0 0
D 23.237381274 _13_ RTR  IFQ 5 131 cbr 230 [0 0 0 0] ------- [13:1 5:0 30 0] [131] 0 0
s 23.248581274 _13_ AGT  --- 5 196 cbr 210 [0 0 0 0] ------- [13:1 5:0 32 0] [196] 0 0
D 23.248581274 _13_ RTR  IFQ 5 132 cbr 230 [0 0 0 0] ------- [13:1 5:0 30 0] [132] 0 0
s 23.259781274 _13_ AGT  --- 5 197 cbr 210 [0 0 0 0] ------- [13:1 5:0 32 0] [197] 0 0
D 23.259781274 _13_ RTR  IFQ 5 133 cbr 230 [0 0 0 0] ------- [13:1 5:0 30 0] [133] 0 0
s 23.270981274 _13_ AGT  --- 5 198 cbr 210 [0 0 0 0] ------- [13:1 5:0 32 0] [198] 0 0
D 23.270981274 _13_ RTR  IFQ 5 134 cbr 230 [0 0 0 0] ------- [13:1 5:0 30 0] [134] 0 0
s 23.282181274 _13_ AGT  --- 5 199 cbr 210 [0 0 0 0] ------- [13:1 5:0 32 0] [199] 0 0
D 23.282181274 _13_ RTR  IFQ 5 135 cbr 230 [0 0 0 0] ------- [13:1 5:0 30 0] [135] 0 0
s 23.293381274 _13_ AGT  --- 5 200 cbr 210 [0 0 0 0] ------- [13:1 5:0 32 0] [200] 0 0
D 23.293381274 _13_ RTR  IFQ 5 136 cbr 230 [0 0 0 0] ------- [13:1 5:0 30 0] [136] 0 0
s 23.304581274 _13_ AGT  --- 5 201 cbr 210 [0 0 0 0] ------- [13:1 5:0 32 0] [201] 0 0
D 23.304581274 _13_ RTR  IFQ 5 137 cbr 230 [0 0 0 0] ------- [13:1 5:0 30 0] [137] 0 0
s 23.315781274 _13_ AGT  --- 5 202 cbr 210 [0 0 0 0] ------- [13:1 5:0 32 0] [202] 0 0
D 23.315781274 _13_ RTR  IFQ 5 138 cbr 230 [0 0 0 0] ------- [13:1 5:0 30 0] [138] 0 0
s 23.326981274 _13_ AGT  --- 5 203 cbr 210 [0 0 0 0] ------- [13:1 5:0 32 0] [203] 0 0
D 23.326981274 _13_ RTR  IFQ 5 139 cbr 230 [0 0 0 0] ------- [13:1 5:0 30 0] [139] 0 0
s 23.338181274 _13_ AGT  --- 5 204 cbr 210 [0 0 0 0] ------- [13:1 5:0 32 0] [204] 0 0
D 23.338181274 _13_ RTR  IFQ 5 140 cbr 230 [0 0 0 0] ------- [13:1 5:0 30 0] [140] 0 0
s 23.349381274 _13_ AGT  --- 5 205 cbr 210 [0 0 0 0] ------- [13:1 5:0 32 0] [205] 0 0
D 23.349381274 _13_ RTR  IFQ 5 141 cbr 230 [0 0 0 0] ------- [13:1 5:0 30 0] [141] 0 0
s 23.360581274 _13_ AGT  --- 5 206 cbr 210 [0 0 0 0] ------- [13:1 5:0 32 0] [206] 0 0