s 0.793739269 _9_ AGT  --- 1 0 cbr 210 [0 0 0 0] ------- [9:0 7:0 32 0] [0] 0 0
s 0.807739269 _9_ AGT  --- 1 1 cbr 210 [0 0 0 0] ------- [9:0 7:0 32 0] [1] 0 0
s 0.821739269 _9_ AGT  --- 1 2 cbr 210 [0 0 0 0] ------- [9:0 7:0 32 0] [2] 0 0
s 0.835739269 _9_ AGT  --- 1 3 cbr 210 [0 0 0 0] ------- [9:0 7:0 32 0] [3] 0 0
s 0.849739269 _9_ AGT  --- 1 4 cbr 210 [0 0 0 0] ------- [9:0 7:0 32 0] [4] 0 0
s 0.863739269 _9_ AGT  --- 1 5 cbr 210 [0 0 0 0] ------- [9:0 7:0 32 0] [5] 0 0
s 0.877739269 _9_ AGT  --- 1 6 cbr 210 [0 0 0 0] ------- [9:0 7:0 32 0] [6] 0 0
s 0.891739269 _9_ AGT  --- 1 7 cbr 210 [0 0 0 0] ------- [9:0 7:0 32 0] [7] 0 0
s 0.905739269 _9_ AGT  --- 1 8 cbr 210 [0 0 0 0] ------- [9:0 7:0 32 0] [8] 0 0
s 0.919739269 _9_ AGT  --- 1 9 cbr 210 [0 0 0 0] ------- [9:0 7:0 32 0] [9] 0 0
s 0.933739269 _9_ AGT  --- 1 10 cbr 210 [0 0 0 0] ------- [9:0 7:0 32 0] [10] 0 0
s 0.947739269 _9_ AGT  --- 1 11 cbr 210 [0 0 0 0] ------- [9:0 7:0 32 0] [11] 0 0
s 0.961739269 _9_ AGT  --- 1 12 cbr 210 [0 0 0 0] ------- [9:0 7:0 32 0] [12] 0 0
s 0.975739269 _9_ AGT  --- 1 13 cbr 210 [0 0 0 0] ------- [9:0 7:0 32 0] [13] 0 0
s 0.989739269 _9_ AGT  --- 1 14 cbr 210 [0 0 0 0] ------- [9:0 7:0 32 0] [14] 0 0
s 1.003739269 _9_ AGT  --- 1 15 cbr 210 [0 0 0 0] ------- [9:0 7:0 32 0] [15] 0 0
s 1.017739269 _9_ AGT  --- 1 16 cbr 210 [0 0 0 0] ------- [9:0 7:0 32 0] [16] 0 0
s 1.031739269 _9_ AGT  --- 1 17 cbr 210 [0 0 0 0] ------- [9:0 7:0 32 0] [17] 0 0
s 1.045739269 _9_ AGT  --- 1 18 cbr 210 [0 0 0 0] ------- [9:0 7:0 32 0] [18] 0 0
s 1.059739269 _9_ AGT  --- 1 19 cbr 210 [0 0 0 0] ------- [9:0 7:0 32 0] [19] 0 0
s 1.073739269 _9_ AGT  --- 1 20 cbr 210 [0 0 0 0] ------- [9:0 7:0 32 0] [20] 0 0
s 1.087739269 _9_ AGT  --- 1 21 cbr 210 [0 0 0 0] ------- [9:0 7:0 32 0] [21] 0 0
s 1.101739269 _9_ AGT  --- 1 22 cbr 210 [0 0 0 0] ------- [9:0 7:0 32 0] [22] 0 0
s 1.115739269 _9_ AGT  --- 1 23 cbr 210 [0 0 0 0] ------- [9:0 7:0 32 0] [23] 0 0
s 1.129739269 _9_ AGT  --- 1 24 cbr 210 [0 0 0 0] ------- [9:0 7:0 32 0] [24] 0 0
s 1.143739269 _9_ AGT  --- 1 25 cbr 210 [0 0 0 0] ------- [9:0 7:0 32 0] [25] 0 0
s 1.157739269 _9_ AGT  --- 1 26 cbr 210 [0 0 0 0] ------- [9:0 7:0 32 0] [26] 0 0
s 1.171739269 _9_ AGT  --- 1 27 cbr 210 [0 0 0 0] ------- [9:0 7:0 32 0] [27] 0 0
s 1.185739269 _9_ AGT  --- 1 28 cbr 210 [0 0 0 0] ------- [9:0 7:0 32 0] [28] 0 0
s 1.199739269 _9_ AGT  --- 1 29 cbr 210 [0 0 0 0] ------- [9:0 7:0 32 0] [29] 0 0
s 1.213739269 _9_ AGT  --- 1 30 cbr 210 [0 0 0 0] ------- [9:0 7:0 32 0] [30] 0 0
s 1.227739269 _9_ AGT  --- 1 31 cbr 210 [0 0 0 0] ------- [9:0 7:0 32 0] [31] 0 0
s 1.241739269 _9_ AGT  --- 1 32 cbr 210 [0 0 0 0] ------- [9:0 7:0 32 0] [32] 0 0
s 1.255739269 _9_ AGT  --- 1 33 cbr 210 [0 0 0 0] ------- [9:0 7:0 32 0] [33] 0 0
s 1.269739269 _9_ AGT  --- 1 34 cbr 210 [0 0 0 0] ------- [9:0 7:0 32 0] [34] 0 0
s 1.283739269 _9_ AGT  --- 1 35 cbr 210 [0 0 0 0] ------- [9:0 7:0 32 0] [35] 0 0
s 1.297739269 _9_ AGT  --- 1 36 cbr 210 [0 0 0 0] ------- [9:0 7:0 32 0] [36] 0 0
s 1.311739269 _9_ AGT  --- 1 37 cbr 210 [0 0 0 0] ------- [9:0 7:0 32 0] [37] 0 0
s 1.325739269 _9_ AGT  --- 1 38 cbr 210 [0 0 0 0] ------- [9:0 7:0 32 0] [38] 0 0
s 1.339739269 _9_ AGT  --- 1 39 cbr 210 [0 0 0 0] ------- [9:0 7:0 32 0] [39] 0 0
s 1.353739269 _9_ AGT  --- 1 40 cbr 210 [0 0 0 0] ------- [9:0 7:0 32 0] [40] 0 0
s 1.367739269 _9_ AGT  --- 1 41 cbr 210 [0 0 0 0] ------- [9:0 7:0 32 0] [41] 0 0
s 1.381739269 _9_ AGT  --- 1 42 cbr 210 [0 0 0 0] ------- [9:0 7:0 32 0] [42] 0 0
s 1.395739269 _9_ AGT  --- 1 43 cbr 210 [0 0 0 0] ------- [9:0 7:0 32 0] [43] 0 0
s 1.409739269 _9_ AGT  --- 1 44 cbr 210 [0 0 0 0] ------- [9:0 7:0 32 0] [44] 0 0
s 1.423739269 _9_ AGT  --- 1 45 cbr 210 [0 0 0 0] ------- [9:0 7:0 32 0] [45] 0 0
s 1.437739269 _9_ AGT  --- 1 46 cbr 210 [0 0 0 0] ------- [9:0 7:0 32 0] [46] 0 0
s 1.451739269 _9_ AGT  --- 1 47 cbr 210 [0 0 0 0] ------- [9:0 7:0 32 0] [47] 0 0
s 1.465739269 _9_ AGT  --- 1 48 cbr 210 [0 0 0 0] ------- [9:0 7:0 32 0] [48] 0 0
s 1.479739269 _9_ AGT  --- 1 49 cbr 210 [0 0 0 0] ------- [9:0 7:0 32 0] [49] 0 0
s 1.493739269 _9_ AGT  --- 1 50 cbr 210 [0 0 0 0] ------- [9:0 7:0 32 0] [50] 0 0
s 1.507739269 _9_ AGT  --- 1 51 cbr 210 [0 0 0 0] ------- [9:0 7:0 32 0] [51] 0 0
s 1.521739269 _9_ AGT  --- 1 52 cbr 210 [0 0 0 0] ------- [9:0 7:0 32 0] [52] 0 0
s 1.535739269 _9_ AGT  --- 1 53 cbr 210 [0 0 0 0] ------- [9:0 7:0 32 0] [53] 0 0
s 1.549739269 _9_ AGT  --- 1 54 cbr 210 [0 0 0 0] ------- [9:0 7:0 32 0] [54] 0 0
s 1.563739269 _9_ AGT  --- 1 55 cbr 210 [0 0 0 0] ------- [9:0 7:0 32 0] [55] 0 0
s 1.577739269 _9_ AGT  --- 1 56 cbr 210 [0 0 0 0] ------- [9:0 7:0 32 0] [56] 0 0
s 1.591739269 _9_ AGT  --- 1 57 cbr 210 [0 0 0 0] ------- [9:0 7:0 32 0] [57] 0 0
s 1.605739269 _9_ AGT  --- 1 58 cbr 210 [0 0 0 0] ------- [9:0 7:0 32 0] [58] 0 0
s 1.619739269 _9_ AGT  --- 1 59 cbr 210 [0 0 0 0] ------- [9:0 7:0 32 0] [59] 0 0
s 1.633739269 _9_ AGT  --- 1 60 cbr 210 [0 0 0 0] ------- [9:0 7:0 32 0] [60] 0 0
s 1.647739269 _9_ AGT  --- 1 61 cbr 210 [0 0 0 0] ------- [9:0 7:0 32 0] [61] 0 0
s 1.661739269 _9_ AGT  --- 1 62 cbr 210 [0 0 0 0] ------- [9:0 7:0 32 0] [62] 0 0
s 1.675739269 _9_ AGT  --- 1 63 cbr 210 [0 0 0 0] ------- [9:0 7:0 32 0] [63] 0 0
s 1.689739269 _9_ AGT  --- 1 64 cbr 210 [0 0 0 0] ------- [9:0 7:0 32 0] [64] 0 0
D 1.689739269 _9_ RTR  IFQ 1 0 cbr 230 [0 0 0 0] ------- [9:0 7:0 30 0] [0] 0 0
s 1.703739269 _9_ AGT  --- 1 65 cbr 210 [0 0 0 0] ------- [9:0 7:0 32 0] [65] 0 0
D 1.703739269 _9_ RTR  IFQ 1 1 cbr 230 [0 0 0 0] ------- [9:0 7:0 30 0] [1] 0 0
s 1.717739269 _9_ AGT  --- 1 66 cbr 210 [0 0 0 0] ------- [9:0 7:0 32 0] [66] 0 0
D 1.717739269 _9_ RTR  IFQ 1 2 cbr 230 [0 0 0 0] ------- [9:0 7:0 30 0] [2] 0 0
s 1.731739269 _9_ AGT  --- 1 67 cbr 210 [0 0 0 0] ------- [9:0 7:0 32 0] [67] 0 0
D 1.731739269 _9_ RTR  IFQ 1 3 cbr 230 [0 0 0 0] ------- [9:0 7:0 30 0] [3] 0 0
s 1.745739269 _9_ AGT  --- 1 68 cbr 210 [0 0 0 0] ------- [9:0 7:0 32 0] [68] 0 0
D 1.745739269 _9_ RTR  IFQ 1 4 cbr 230 [0 0 0 0] ------- [9:0 7:0 30 0] [4] 0 0
s 1.759739269 _9_ AGT  --- 1 69 cbr 210 [0 0 0 0] ------- [9:0 7:0 32 0] [69] 0 0
D 1.759739269 _9_ RTR  IFQ 1 5 cbr 230 [0 0 0 0] ------- [9:0 7:0 30 0] [5] 0 0
s 1.773739269 _9_ AGT  --- 1 70 cbr 210 [0 0 0 0] ------- [9:0 7:0 32 0] [70] 0 0
D 1.773739269 _9_ RTR  IFQ 1 6 cbr 230 [0 0 0 0] ------- [9:0 7:0 30 0] [6] 0 0
s 1.787739269 _9_ AGT  --- 1 71 cbr 210 [0 0 0 0] ------- [9:0 7:0 32 0] [71] 0 0
D 1.787739269 _9_ RTR  IFQ 1 7 cbr 230 [0 0 0 0] ------- [9:0 7:0 30 0] [7] 0 0
s 1.801739269 _9_ AGT  --- 1 72 cbr 210 [0 0 0 0] ------- [9:0 7:0 32 0] [72] 0 0
D 1.801739269 _9_ RTR  IFQ 1 8 cbr 230 [0 0 0 0] ------- [9:0 7:0 30 0] [8] 0 0
s 1.815739269 _9_ AGT  --- 1 73 cbr 210 [0 0 0 0] ------- [9:0 7:0 32 0] [73] 0 0
D 1.815739269 _9_ RTR  IFQ 1 9 cbr 230 [0 0 0 0] ------- [9:0 7:0 30 0] [9] 0 0
s 1.829739269 _9_ AGT  --- 1 74 cbr 210 [0 0 0 0] ------- [9:0 7:0 32 0] [74] 0 0
D 1.829739269 _9_ RTR  IFQ 1 10 cbr 230 [0 0 0 0] ------- [9:0 7:0 30 0] [10] 0 0
s 1.843739269 _9_ AGT  --- 1 75 cbr 210 [0 0 0 0] ------- [9:0 7:0 32 0] [75] 0 0
D 1.843739269 _9_ RTR  IFQ 1 11 cbr 230 [0 0 0 0] ------- [9:0 7:0 30 0] [11] 0 0
s 1.857739269 _9_ AGT  --- 1 76 cbr 210 [0 0 0 0] ------- [9:0 7:0 32 0] [76] 0 0
D 1.857739269 _9_ RTR  IFQ 1 12 cbr 230 [0 0 0 0] ------- [9:0 7:0 30 0] [12] 0 0
s 1.871739269 _9_ AGT  --- 1 77 cbr 210 [0 0 0 0] ------- [9:0 7:0 32 0] [77] 0 0
D 1.871739269 _9_ RTR  IFQ 1 13 cbr 230 [0 0 0 0] ------- [9:0 7:0 30 0] [13] 0 0
s 1.885739269 _9_ AGT  --- 1 78 cbr 210 [0 0 0 0] ------- [9:0 7:0 32 0] [78] 0 0
D 1.885739269 _9_ RTR  IFQ 1 14 cbr 230 [0 0 0 0] ------- [9:0 7:0 30 0] [14] 0 0
s 1.899739269 _9_ AGT  --- 1 79 cbr 210 [0 0 0 0] ------- [9:0 7:0 32 0] [79] 0 0
D 1.899739269 _9_ RTR  IFQ 1 15 cbr 230 [0 0 0 0] ------- [9:0 7:0 30 0] [15] 0 0
s 1.913739269 _9_ AGT  --- 1 80 cbr 210 [0 0 0 0] ------- [9:0 7:0 32 0] [80] 0 0
D 1.913739269 _9_ RTR  IFQ 1 16 cbr 230 [0 0 0 0] ------- [9:0 7:0 30 0] [16] 0 0
s 1.927739269 _9_ AGT  --- 1 81 cbr 210 [0 0 0 0] ------- [9:0 7:0 32 0] [81] 0 0
D 1.927739269 _9_ RTR  IFQ 1 17 cbr 230 [0 0 0 0] ------- [9:0 7:0 30 0] [17] 0 0
s 1.941739269 _9_ AGT  --- 1 82 cbr 210 [0 0 0 0] ------- [9:0 7:0 32 0] [82] 0 0
D 1.941739269 _9_ RTR  IFQ 1 18 cbr 230 [0 0 0 0] ------- [9:0 7:0 30 0] [18] 0 0
s 1.955739269 _9_ AGT  --- 1 83 cbr 210 [0 0 0 0] ------- [9:0 7:0 32 0] [83] 0 0
D 1.955739269 _9_ RTR  IFQ 1 19 cbr 230 [0 0 0 0] ------- [9:0 7:0 30 0] [19] 0 0
s 1.969739269 _9_ AGT  --- 1 84 cbr 210 [0 0 0 0] ------- [9:0 7:0 32 0] [84] 0 0
D 1.969739269 _9_ RTR  IFQ 1 20 cbr 230 [0 0 0 0] ------- [9:0 7:0 30 0] [20] 0 0
s 1.983739269 _9_ AGT  --- 1 85 cbr 210 [0 0 0 0] ------- [9:0 7:0 32 0] [85] 0 0
D 1.983739269 _9_ RTR  IFQ 1 21 cbr 230 [0 0 0 0] ------- [9:0 7:0 30 0] [21] 0 0
s 1.997739269 _9_ AGT  --- 1 86 cbr 210 [0 0 0 0] ------- [9:0 7:0 32 0] [86] 0 0
D 1.997739269 _9_ RTR  IFQ 1 22 cbr 230 [0 0 0 0] ------- [9:0 7:0 30 0] [22] 0 0
s 2.011739269 _9_ AGT  --- 1 87 cbr 210 [0 0 0 0] ------- [9:0 7:0 32 0] [87] 0 0
D 2.011739269 _9_ RTR  IFQ 1 23 cbr 230 [0 0 0 0] ------- [9:0 7:0 30 0] [23] 0 0
s 2.025739269 _9_ AGT  --- 1 88 cbr 210 [0 0 0 0] ------- [9:0 7:0 32 0] [88] 0 0
D 2.025739269 _9_ RTR  IFQ 1 24 cbr 230 [0 0 0 0] ------- [9:0 7:0 30 0] [24] 0 0
s 2.039739269 _9_ AGT  --- 1 89 cbr 210 [0 0 0 0] ------- [9:0 7:0 32 0] [89] 0 0
D 2.039739269 _9_ RTR  IFQ 1 25 cbr 230 [0 0 0 0] ------- [9:0 7:0 30 0] [25] 0 0
s 2.053739269 _9_ AGT  --- 1 90 cbr 210 [0 0 0 0] ------- [9:0 7:0 32 0] [90] 0 0
D 2.053739269 _9_ RTR  IFQ 1 26 cbr 230 [0 0 0 0] ------- [9:0 7:0 30 0] [26] 0 0
s 2.067739269 _9_ AGT  --- 1 91 cbr 210 [0 0 0 0] ------- [9:0 7:0 32 0] [91] 0 0
D 2.067739269 _9_ RTR  IFQ 1 27 cbr 230 [0 0 0 0] ------- [9:0 7:0 30 0] [27] 0 0
s 2.081739269 _9_ AGT  --- 1 92 cbr 210 [0 0 0 0] ------- [9:0 7:0 32 0] [92] 0 0
D 2.081739269 _9_ RTR  IFQ 1 28 cbr 230 [0 0 0 0] ------- [9:0 7:0 30 0] [28] 0 0
s 2.095739269 _9_ AGT  --- 1 93 cbr 210 [0 0 0 0] ------- [9:0 7:0 32 0] [93] 0 0
D 2.095739269 _9_ RTR  IFQ 1 29 cbr 230 [0 0 0 0] ------- [9:0 7:0 30 0] [29] 0 0
s 2.109739269 _9_ AGT  --- 1 94 cbr 210 [0 0 0 0] ------- [9:0 7:0 32 0] [94] 0 0
D 2.109739269 _9_ RTR  IFQ 1 30 cbr 230 [0 0 0 0] ------- [9:0 7:0 30 0] [30] 0 0
s 2.123739269 _9_ AGT  --- 1 95 cbr 210 [0 0 0 0] ------- [9:0 7:0 32 0] [95] 0 0
D 2.123739269 _9_ RTR  IFQ 1 31 cbr 230 [0 0 0 0] ------- [9:0 7:0 30 0] [31] 0 0
s 2.137739269 _9_ AGT  --- 1 96 cbr 210 [0 0 0 0] ------- [9:0 7:0 32 0] [96] 0 0
D 2.137739269 _9_ RTR  IFQ 1 32 cbr 230 [0 0 0 0] ------- [9:0 7:0 30 0] [32] 0 0
s 2.151739269 _9_ AGT  --- 1 97 cbr 210 [0 0 0 0] ------- [9:0 7:0 32 0] [97] 0 0
D 2.151739269 _9_ RTR  IFQ 1 33 cbr 230 [0 0 0 0] ------- [9:0 7:0 30 0] [33] 0 0
s 2.165739269 _9_ AGT  --- 1 98 cbr 210 [0 0 0 0] ------- [9:0 7:0 32 0] [98] 0 0
D 2.165739269 _9_ RTR  IFQ 1 34 cbr 230 [0 0 0 0] ------- [9:0 7:0 30 0] [34] 0 0
s 2.179739269 _9_ AGT  --- 1 99 cbr 210 [0 0 0 0] ------- [9:0 7:0 32 0] [99] 0 0
D 2.179739269 _9_ RTR  IFQ 1 35 cbr 230 [0 0 0 0] ------- [9:0 7:0 30 0] [35] 0 0
s 2.193739269 _9_ AGT  --- 1 100 cbr 210 [0 0 0 0] ------- [9:0 7:0 32 0] [100] 0 0
D 2.193739269 _9_ RTR  IFQ 1 36 cbr 230 [0 0 0 0] ------- [9:0 7:0 30 0] [36] 0 0
s 2.207739269 _9_ AGT  --- 1 101 cbr 210 [0 0 0 0] ------- [9:0 7:0 32 0] [101] 0 0
D 2.207739269 _9_ RTR  IFQ 1 37 cbr 230 [0 0 0 0] ------- [9:0 7:0 30 0] [37] 0 0
s 2.221739269 _9_ AGT  --- 1 102 cbr 210 [0 0 0 0] ------- [9:0 7:0 32 0] [102] 0 0
D 2.221739269 _9_ RTR  IFQ 1 38 cbr 230 [0 0 0 0] ------- [9:0 7:0 30 0] [38] 0 0
s 2.235739269 _9_ AGT  --- 1 103 cbr 210 [0 0 0 0] ------- [9:0 7:0 32 0] [103] 0 0
D 2.235739269 _9_ RTR  IFQ 1 39 cbr 230 [0 0 0 0] ------- [9:0 7:0 30 0] [39] 0 0
s 2.249739269 _9_ AGT  --- 1 104 cbr 210 [0 0 0 0] ------- [9:0 7:0 32 0] [104] 0 0
D 2.249739269 _9_ RTR  IFQ 1 40 cbr 230 [0 0 0 0] ------- [9:0 7:0 30 0] [40] 0 0
s 2.263739269 _9_ AGT  --- 1 105 cbr 210 [0 0 0 0] ------- [9:0 7:0 32 0] [105] 0 0
D 2.263739269 _9_ RTR  IFQ 1 41 cbr 230 [0 0 0 0] ------- [9:0 7:0 30 0] [41] 0 0
s 2.277739269 _9_ AGT  --- 1 106 cbr 210 [0 0 0 0] ------- [9:0 7:0 32 0] [106] 0 0
D 2.277739269 _9_ RTR  IFQ 1 42 cbr 230 [0 0 0 0] ------- [9:0 7:0 30 0] [42] 0 0
s 2.291739269 _9_ AGT  --- 1 107 cbr 210 [0 0 0 0] ------- [9:0 7:0 32 0] [107] 0 0
D 2.291739269 _9_ RTR  IFQ 1 43 cbr 230 [0 0 0 0] ------- [9:0 7:0 30 0] [43] 0 0
s 2.305739269 _9_ AGT  --- 1 108 cbr 210 [0 0 0 0] ------- [9:0 7:0 32 0] [108] 0 0
D 2.305739269 _9_ RTR  IFQ 1 44 cbr 230 [0 0 0 0] ------- [9:0 7:0 30 0] [44] 0 0
s 2.319739269 _9_ AGT  --- 1 109 cbr 210 [0 0 0 0] ------- [9:0 7:0 32 0] [109] 0 0
D 2.319739269 _9_ RTR  IFQ 1 45 cbr 230 [0 0 0 0] ------- [9:0 7:0 30 0] [45] 0 0
s 2.333739269 _9_ AGT  --- 1 110 cbr 210 [0 0 0 0] ------- [9:0 7:0 32 0] [110] 0 0
D 2.333739269 _9_ RTR  IFQ 1 46 cbr 230 [0 0 0 0] ------- [9:0 7:0 30 0] [46] 0 0
s 2.347739269 _9_ AGT  --- 1 111 cbr 210 [0 0 0 0] ------- [9:0 7:0 32 0] [111] 0 0
D 2.347739269 _9_ RTR  IFQ 1 47 cbr 230 [0 0 0 0] ------- [9:0 7:0 30 0] [47] 0 0
s 2.361739269 _9_ AGT  --- 1 112 cbr 210 [0 0 0 0] ------- [9:0 7:0 32 0] [112] 0 0
D 2.361739269 _9_ RTR  IFQ 1 48 cbr 230 [0 0 0 0] ------- [9:0 7:0 30 0] [48] 0 0
s 2.375739269 _9_ AGT  --- 1 113 cbr 210 [0 0 0 0] ------- [9:0 7:0 32 0] [113] 0 0
D 2.375739269 _9_ RTR  IFQ 1 49 cbr 230 [0 0 0 0] ------- [9:0 7:0 30 0] [49] 0 0
s 2.389739269 _9_ AGT  --- 1 114 cbr 210 [0 0 0 0] ------- [9:0 7:0 32 0] [114] 0 0
D 2.389739269 _9_ RTR  IFQ 1 50 cbr 230 [0 0 0 0] ------- [9:0 7:0 30 0] [50] 0 0
s 2.403739269 _9_ AGT  --- 1 115 cbr 210 [0 0 0 0] ------- [9:0 7:0 32 0] [115] 0 0
D 2.403739269 _9_ RTR  IFQ 1 51 cbr 230 [0 0 0 0] ------- [9:0 7:0 30 0] [51] 0 0
s 2.417739269 _9_ AGT  --- 1 116 cbr 210 [0 0 0 0] ------- [9:0 7:0 32 0] [116] 0 0
D 2.417739269 _9_ RTR  IFQ 1 52 cbr 230 [0 0 0 0] ------- [9:0 7:0 30 0] [52] 0 0
s 2.431739269 _9_ AGT  --- 1 117 cbr 210 [0 0 0 0] ------- [9:0 7:0 32 0] [117] 0 0
D 2.431739269 _9_ RTR  IFQ 1 53 cbr 230 [0 0 0 0] ------- [9:0 7:0 30 0] [53] 0 0
s 2.445739269 _9_ AGT  --- 1 118 cbr 210 [0 0 0 0] ------- [9:0 7:0 32 0] [118] 0 0
D 2.445739269 _9_ RTR  IFQ 1 54 cbr 230 [0 0 0 0] ------- [9:0 7:0 30 0] [54] 0 0
s 2.459739269 _9_ AGT  --- 1 119 cbr 210 [0 0 0 0] ------- [9:0 7:0 32 0] [119] 0 0
D 2.459739269 _9_ RTR  IFQ 1 55 cbr 230 [0 0 0 0] ------- [9:0 7:0 30 0] [55] 0 0
s 2.473739269 _9_ AGT  --- 1 120 cbr 210 [0 0 0 0] ------- [9:0 7:0 32 0] [120] 0 0
D 2.473739269 _9_ RTR  IFQ 1 56 cbr 230 [0 0 0 0] ------- [9:0 7:0 30 0] [56] 0 0
s 2.487739269 _9_ AGT  --- 1 121 cbr 210 [0 0 0 0] ------- [9:0 7:0 32 0] [121] 0 0
D 2.487739269 _9_ RTR  IFQ 1 57 cbr 230 [0 0 0 0] ------- [9:0 7:0 30 0] [57] 0 0
s 2.501739269 _9_ AGT  --- 1 122 cbr 210 [0 0 0 0] ------- [9:0 7:0 32 0] [122] 0 0
D 2.501739269 _9_ RTR  IFQ 1 58 cbr 230 [0 0 0 0] ------- [9:0 7:0 30 0] [58] 0 0
s 2.515739269 _9_ AGT  --- 1 123 cbr 210 [0 0 0 0] ------- [9:0 7:0 32 0] [123] 0 0
D 2.515739269 _9_ RTR  IFQ 1 59 cbr 230 [0 0 0 0] ------- [9:0 7:0 30 0] [59] 0 0
s 2.529739269 _9_ AGT  --- 1 124 cbr 210 [0 0 0 0] ------- [9:0 7:0 32 0] [124] 0 0
D 2.529739269 _9_ RTR  IFQ 1 60 cbr 230 [0 0 0 0] ------- [9:0 7:0 30 0] [60] 0 0
s 2.543739269 _9_ AGT  --- 1 125 cbr 210 [0 0 0 0] ------- [9:0 7:0 32 0] [125] 0 0
D 2.543739269 _9_ RTR  IFQ 1 61 cbr 230 [0 0 0 0] ------- [9:0 7:0 30 0] [61] 0 0
s 2.557739269 _9_ AGT  --- 1 126 cbr 210 [0 0 0 0] ------- [9:0 7:0 32 0] [126] 0 0
D 2.557739269 _9_ RTR  IFQ 1 62 cbr 230 [0 0 0 0] ------- [9:0 7:0 30 0] [62] 0 0
s 2.571739269 _9_ AGT  --- 1 127 cbr 210 [0 0 0 0] ------- [9:0 7:0 32 0] [127] 0 0
D 2.571739269 _9_ RTR  IFQ 1 63 cbr 230 [0 0 0 0] ------- [9:0 7:0 30 0] [63] 0 0
s 2.585739269 _9_ AGT  --- 1 128 cbr 210 [0 0 0 0] ------- [9:0 7:0 32 0] [128] 0 0
D 2.585739269 _9_ RTR  IFQ 1 64 cbr 230 [0 0 0 0] ------- [9:0 7:0 30 0] [64] 0 0
s 2.599739269 _9_ AGT  --- 1 129 cbr 210 [0 0 0 0] ------- [9:0 7:0 32 0] [129] 0 0
D 2.599739269 _9_ RTR  IFQ 1 65 cbr 230 [0 0 0 0] ------- [9:0 7:0 30 0] [65] 0 0
s 2.613739269 _9_ AGT  --- 1 130 cbr 210 [0 0 0 0] ------- [9:0 7:0 32 0] [130] 0 0
D 2.613739269 _9_ RTR  IFQ 1 66 cbr 230 [0 0 0 0] ------- [9:0 7:0 30 0] [66] 0 0
s 2.627739269 _9_ AGT  --- 1 131 cbr 210 [0 0 0 0] ------- [9:0 7:0 32 0] [131] 0 0
D 2.627739269 _9_ RTR  IFQ 1 67 cbr 230 [0 0 0 0] ------- [9:0 7:0 30 0] [67] 0 0
s 2.641739269 _9_ AGT  --- 1 132 cbr 210 [0 0 0 0] ------- [9:0 7:0 32 0] [132] 0 0
D 2.641739269 _9_ RTR  IFQ 1 68 cbr 230 [0 0 0 0] ------- [9:0 7:0 30 0] [68] 0 0
s 2.655739269 _9_ AGT  --- 1 133 cbr 210 [0 0 0 0] ------- [9:0 7:0 32 0] [133] 0 0
D 2.655739269 _9_ RTR  IFQ 1 69 cbr 230 [0 0 0 0] ------- [9:0 7:0 30 0] [69] 0 0
s 2.669739269 _9_ AGT  --- 1 134 cbr 210 [0 0 0 0] ------- [9:0 7:0 32 0] [134] 0 0
D 2.669739269 _9_ RTR  IFQ 1 70 cbr 230 [0 0 0 0] ------- [9:0 7:0 30 0] [70] 0 0
s 2.683739269 _9_ AGT  --- 1 135 cbr 210 [0 0 0 0] ------- [9:0 7:0 32 0] [135] 0 0
D 2.683739269 _9_ RTR  IFQ 1 71 cbr 230 [0 0 0 0] ------- [9:0 7:0 30 0] [71] 0 0
s 2.697739269 _9_ AGT  --- 1 136 cbr 210 [0 0 0 0] ------- [9:0 7:0 32 0] [136] 0 0
D 2.697739269 _9_ RTR  IFQ 1 72 cbr 230 [0 0 0 0] ------- [9:0 7:0 30 0] [72] 0 0
s 2.711739269 _9_ AGT  --- 1 137 cbr 210 [0 0 0 0] ------- [9:0 7:0 32 0] [137] 0 0
D 2.711739269 _9_ RTR  IFQ 1 73 cbr 230 [0 0 0 0] ------- [9:0 7:0 30 0] [73] 0 0
s 2.725739269 _9_ AGT  --- 1 138 cbr 210 [0 0 0 0] ------- [9:0 7:0 32 0] [138] 0 0
D 2.725739269 _9_ RTR  IFQ 1 74 cbr 230 [0 0 0 0] ------- [9:0 7:0 30 0] [74] 0 0
s 2.739739269 _9_ AGT  --- 1 139 cbr 210 [0 0 0 0] ------- [9:0 7:0 32 0] [139] 0 0
D 2.739739269 _9_ RTR  IFQ 1 75 cbr 230 [0 0 0 0] ------- [9:0 7:0 30 0] [75] 0 0
s 2.753739269 _9_ AGT  --- 1 140 cbr 210 [0 0 0 0] ------- [9:0 7:0 32 0] [140] 0 0
D 2.753739269 _9_ RTR  IFQ 1 76 cbr 230 [0 0 0 0] ------- [9:0 7:0 30 0] [76] 0 0
s 2.767739269 _9_ AGT  --- 1 141 cbr 210 [0 0 0 0] ------- [9:0 7:0 32 0] [141] 0 0
D 2.767739269 _9_ RTR  IFQ 1 77 cbr 230 [0 0 0 0] ------- [9:0 7:0 30 0] [77] 0 0
s 2.781739269 _9_ AGT  --- 1 142 cbr 210 [0 0 0 0] ------- [9:0 7:0 32 0] [142] 0 0
D 2.781739269 _9_ RTR  IFQ 1 78 cbr 230 [0 0 0 0] ------- [9:0 7:0 30 0] [78] 0 0
s 2.795739269 _9_ AGT  --- 1 143 cbr 210 [0 0 0 0] ------- [9:0 7:0 32 0] [143] 0 0
D 2.795739269 _9_ RTR  IFQ 1 79 cbr 230 [0 0 0 0] ------- [9:0 7:0 30 0] [79] 0 0
s 2.809739269 _9_ AGT  --- 1 144 cbr 210 [0 0 0 0] ------- [9:0 7:0 32 0] [144] 0 0
D 2.809739269 _9_ RTR  IFQ 1 80 cbr 230 [0 0 0 0] ------- [9:0 7:0 30 0] [80] 0 0
s 2.823739269 _9_ AGT  --- 1 145 cbr 210 [0 0 0 0] ------- [9:0 7:0 32 0] [145] 0 0
D 2.823739269 _9_ RTR  IFQ 1 81 cbr 230 [0 0 0 0] ------- [9:0 7:0 30 0] [81] 0 0
s 2.837739269 _9_ AGT  --- 1 146 cbr 210 [0 0 0 0] ------- [9:0 7:0 32 0] [146] 0 0
D 2.837739269 _9_ RTR  IFQ 1 82 cbr 230 [0 0 0 0] ------- [9:0 7:0 30 0] [82] 0 0
s 2.851739269 _9_ AGT  --- 1 147 cbr 210 [0 0 0 0] ------- [9:0 7:0 32 0] [147] 0 0
D 2.851739269 _9_ RTR  IFQ 1 83 cbr 230 [0 0 0 0] ------- [9:0 7:0 30 0] [83] 0 0
s 2.865739269 _9_ AGT  --- 1 148 cbr 210 [0 0 0 0] ------- [9:0 7:0 32 0] [148] 0 0
D 2.865739269 _9_ RTR  IFQ 1 84 cbr 230 [0 0 0 0] ------- [9:0 7:0 30 0] [84] 0 0
s 2.879739269 _9_ AGT  --- 1 149 cbr 210 [0 0 0 0] ------- [9:0 7:0 32 0] [149] 0 0
D 2.879739269 _9_ RTR  IFQ 1 85 cbr 230 [0 0 0 0] ------- [9:0 7:0 30 0] [85] 0 0
s 2.893739269 _9_ AGT  --- 1 150 cbr 210 [0 0 0 0] ------- [9:0 7:0 32 0] [150] 0 0
D 2.893739269 _9_ RTR  IFQ 1 86 cbr 230 [0 0 0 0] ------- [9:0 7:0 30 0] [86] 0 0
s 2.907739269 _9_ AGT  --- 1 151 cbr 210 [0 0 0 0] ------- [9:0 7:0 32 0] [151] 0 0
D 2.907739269 _9_ RTR  IFQ 1 87 cbr 230 [0 0 0 0] ------- [9:0 7:0 30 0] [87] 0 0
s 2.921739269 _9_ AGT  --- 1 152 cbr 210 [0 0 0 0] ------- [9:0 7:0 32 0] [152] 0 0
D 2.921739269 _9_ RTR  IFQ 1 88 cbr 230 [0 0 0 0] ------- [9:0 7:0 30 0] [88] 0 0
s 2.935739269 _9_ AGT  --- 1 153 cbr 210 [0 0 0 0] ------- [9:0 7:0 32 0] [153] 0 0
D 2.935739269 _9_ RTR  IFQ 1 89 cbr 230 [0 0 0 0] ------- [9:0 7:0 30 0] [89] 0 0
s 2.949739269 _9_ AGT  --- 1 154 cbr 210 [0 0 0 0] ------- [9:0 7:0 32 0] [154] 0 0
D 2.949739269 _9_ RTR  IFQ 1 90 cbr 230 [0 0 0 0] ------- [9:0 7:0 30 0] [90] 0 0
s 2.963739269 _9_ AGT  --- 1 155 cbr 210 [0 0 0 0] ------- [9:0 7:0 32 0] [155] 0 0
D 2.963739269 _9_ RTR  IFQ 1 91 cbr 230 [0 0 0 0] ------- [9:0 7:0 30 0] [91] 0 0
s 2.977739269 _9_ AGT  --- 1 156 cbr 210 [0 0 0 0] ------- [9:0 7:0 32 0] [156] 0 0
D 2.977739269 _9_ RTR  IFQ 1 92 cbr 230 [0 0 0 0] ------- [9:0 7:0 30 0] [92] 0 0
s 2.991739269 _9_ AGT  --- 1 157 cbr 210 [0 0 0 0] ------- [9:0 7:0 32 0] [157] 0 0
D 2.991739269 _9_ RTR  IFQ 1 93 cbr 230 [0 0 0 0] ------- [9:0 7:0 30 0] [93] 0 0
s 3.005739269 _9_ AGT  --- 1 158 cbr 210 [0 0 0 0] ------- [9:0 7:0 32 0] [158] 0 0
D 3.005739269 _9_ RTR  IFQ 1 94 cbr 230 [0 0 0 0] ------- [9:0 7:0 30 0] [94] 0 0
s 3.019739269 _9_ AGT  --- 1 159 cbr 210 [0 0 0 0] ------- [9:0 7:0 32 0] [159] 0 0
D 3.019739269 _9_ RTR  IFQ 1 95 cbr 230 [0 0 0 0] ------- [9:0 7:0 30 0] [95] 0 0
s 3.033739269 _9_ AGT  --- 1 160 cbr 210 [0 0 0 0] ------- [9:0 7:0 32 0] [160] 0 0
D 3.033739269 _9_ RTR  IFQ 1 96 cbr 230 [0 0 0 0] ------- [9:0 7:0 30 0] [96] 0 0
s 3.047739269 _9_ AGT  --- 1 161 cbr 210 [0 0 0 0] ------- [9:0 7:0 32 0] [161] 0 0
D 3.047739269 _9_ RTR  IFQ 1 97 cbr 230 [0 0 0 0] ------- [9:0 7:0 30 0] [97] 0 0
s 3.061739269 _9_ AGT  --- 1 162 cbr 210 [0 0 0 0] ------- [9:0 7:0 32 0] [162] 0 0
D 3.061739269 _9_ RTR  IFQ 1 98 cbr 230 [0 0 0 0] ------- [9:0 7:0 30 0] [98] 0 0
s 3.075739269 _9_ AGT  --- 1 163 cbr 210 [0 0 0 0] ------- [9:0 7:0 32 0] [163] 0 0
D 3.075739269 _9_ RTR  IFQ 1 99 cbr 230 [0 0 0 0] ------- [9:0 7:0 30 0] [99] 0 0
s 3.089739269 _9_ AGT  --- 1 164 cbr 210 [0 0 0 0] ------- [9:0 7:0 32 0] [164] 0 0
D 3.089739269 _9_ RTR  IFQ 1 100 cbr 230 [0 0 0 0] ------- [9:0 7:0 30 0] [100] 0 0
s 3.103739269 _9_ AGT  --- 1 165 cbr 210 [0 0 0 0] ------- [9:0 7:0 32 0] [165] 0 0
D 3.103739269 _9_ RTR  IFQ 1 101 cbr 230 [0 0 0 0] ------- [9:0 7:0 30 0] [101] 0 0
s 3.117739269 _9_ AGT  --- 1 166 cbr 210 [0 0 0 0] ------- [9:0 7:0 32 0] [166] 0 0
D 3.117739269 _9_ RTR  IFQ 1 102 cbr 230 [0 0 0 0] ------- [9:0 7:0 30 0] [102] 0 0
s 3.131739269 _9_ AGT  --- 1 167 cbr 210 [0 0 0 0] ------- [9:0 7:0 32 0] [167] 0 0
D 3.131739269 _9_ RTR  IFQ 1 103 cbr 230 [0 0 0 0] ------- [9:0 7:0 30 0] [103] 0 0
s 3.145739269 _9_ AGT  --- 1 168 cbr 210 [0 0 0 0] ------- [9:0 7:0 32 0] [168] 0 0
D 3.145739269 _9_ RTR  IFQ 1 104 cbr 230 [0 0 0 0] ------- [9:0 7:0 30 0] [104] 0 0
s 3.159739269 _9_ AGT  --- 1 169 cbr 210 [0 0 0 0] ------- [9:0 7:0 32 0] [169] 0 0
D 3.159739269 _9_ RTR  IFQ 1 105 cbr 230 [0 0 0 0] ------- [9:0 7:0 30 0] [105] 0 0
s 3.173739269 _9_ AGT  --- 1 170 cbr 210 [0 0 0 0] ------- [9:0 7:0 32 0] [170] 0 0
D 3.173739269 _9_ RTR  IFQ 1 106 cbr 230 [0 0 0 0] ------- [9:0 7:0 30 0] [106] 0 0
s 3.187739269 _9_ AGT  --- 1 171 cbr 210 [0 0 0 0] ------- [9:0 7:0 32 0] [171] 0 0
D 3.187739269 _9_ RTR  IFQ 1 107 cbr 230 [0 0 0 0] ------- [9:0 7:0 30 0] [107] 0 0
s 3.201739269 _9_ AGT  --- 1 172 cbr 210 [0 0 0 0] ------- [9:0 7:0 32 0] [172] 0 0
D 3.201739269 _9_ RTR  IFQ 1 108 cbr 230 [0 0 0 0] ------- [9:0 7:0 30 0] [108] 0 0
s 3.215739269 _9_ AGT  --- 1 173 cbr 210 [0 0 0 0] ------- [9:0 7:0 32 0] [173] 0 0
D 3.215739269 _9_ RTR  IFQ 1 109 cbr 230 [0 0 0 0] ------- [9:0 7:0 30 0] [109] 0 0
s 3.229739269 _9_ AGT  --- 1 174 cbr 210 [0 0 0 0] ------- [9:0 7:0 32 0] [174] 0 0
D 3.229739269 _9_ RTR  IFQ 1 110 cbr 230 [0 0 0 0] ------- [9:0 7:0 30 0] [110] 0 0
s 3.243739269 _9_ AGT  --- 1 175 cbr 210 [0 0 0 0] ------- [9:0 7:0 32 0] [175] 0 0
D 3.243739269 _9_ RTR  IFQ 1 111 cbr 230 [0 0 0 0] ------- [9:0 7:0 30 0] [111] 0 0
s 3.257739269 _9_ AGT  --- 1 176 cbr 210 [0 0 0 0] ------- [9:0 7:0 32 0] [176] 0 0
D 3.257739269 _9_ RTR  IFQ 1 112 cbr 230 [0 0 0 0] ------- [9:0 7:0 30 0] [112] 0 0
s 3.271739269 _9_ AGT  --- 1 177 cbr 210 [0 0 0 0] ------- [9:0 7:0 32 0] [177] 0 0
D 3.271739269 _9_ RTR  IFQ 1 113 cbr 230 [0 0 0 0] ------- [9:0 7:0 30 0] [113] 0 0
s 3.285739269 _9_ AGT  --- 1 178 cbr 210 [0 0 0 0] ------- [9:0 7:0 32 0] [178] 0 0
D 3.285739269 _9_ RTR  IFQ 1 114 cbr 230 [0 0 0 0] ------- [9:0 7:0 30 0] [114] 0 0
s 3.299739269 _9_ AGT  --- 1 179 cbr 210 [0 0 0 0] ------- [9:0 7:0 32 0] [179] 0 0
D 3.299739269 _9_ RTR  IFQ 1 115 cbr 230 [0 0 0 0] ------- [9:0 7:0 30 0] [115] 0 0
s 3.313739269 _9_ AGT  --- 1 180 cbr 210 [0 0 0 0] ------- [9:0 7:0 32 0] [180] 0 0
D 3.313739269 _9_ RTR  IFQ 1 116 cbr 230 [0 0 0 0] ------- [9:0 7:0 30 0] [116] 0 0
s 3.327739269 _9_ AGT  --- 1 181 cbr 210 [0 0 0 0] ------- [9:0 7:0 32 0] [181] 0 0
D 3.327739269 _9_ RTR  IFQ 1 117 cbr 230 [0 0 0 0] ------- [9:0 7:0 30 0] [117] 0 0
s 3.341739269 _9_ AGT  --- 1 182 cbr 210 [0 0 0 0] ------- [9:0 7:0 32 0] [182] 0 0
D 3.341739269 _9_ RTR  IFQ 1 118 cbr 230 [0 0 0 0] ------- [9:0 7:0 30 0] [118] 0 0
s 3.355739269 _9_ AGT  --- 1 183 cbr 210 [0 0 0 0] ------- [9:0 7:0 32 0] [183] 0 0
D 3.355739269 _9_ RTR  IFQ 1 119 cbr 230 [0 0 0 0] ------- [9:0 7:0 30 0] [119] 0 0
s 3.369739269 _9_ AGT  --- 1 184 cbr 210 [0 0 0 0] ------- [9:0 7:0 32 0] [184] 0 0
D 3.369739269 _9_ RTR  IFQ 1 120 cbr 230 [0 0 0 0] ------- [9:0 7:0 30 0] [120] 0 0
s 3.383739269 _9_ AGT  --- 1 185 cbr 210 [0 0 0 0] ------- [9:0 7:0 32 0] [185] 0 0
D 3.383739269 _9_ RTR  IFQ 1 121 cbr 230 [0 0 0 0] ------- [9:0 7:0 30 0] [121] 0 0
s 3.397739269 _9_ AGT  --- 1 186 cbr 210 [0 0 0 0] ------- [9:0 7:0 32 0] [186] 0 0
D 3.397739269 _9_ RTR  IFQ 1 122 cbr 230 [0 0 0 0] ------- [9:0 7:0 30 0] [122] 0 0
s 3.411739269 _9_ AGT  --- 1 187 cbr 210 [0 0 0 0] ------- [9:0 7:0 32 0] [187] 0 0
D 3.411739269 _9_ RTR  IFQ 1 123 cbr 230 [0 0 0 0] ------- [9:0 7:0 30 0] [123] 0 0
s 3.425739269 _9_ AGT  --- 1 188 cbr 210 [0 0 0 0] ------- [9:0 7:0 32 0] [188] 0 0
D 3.425739269 _9_ RTR  IFQ 1 124 cbr 230 [0 0 0 0] ------- [9:0 7:0 30 0] [124] 0 0
s 3.439739269 _9_ AGT  --- 1 189 cbr 210 [0 0 0 0] ------- [9:0 7:0 32 0] [189] 0 0
D 3.439739269 _9_ RTR  IFQ 1 125 cbr 230 [0 0 0 0] ------- [9:0 7:0 30 0] [125] 0 0
s 3.453739269 _9_ AGT  --- 1 190 cbr 210 [0 0 0 0] ------- [9:0 7:0 32 0] [190] 0 0
D 3.453739269 _9_ RTR  IFQ 1 126 cbr 230 [0 0 0 0] ------- [9:0 7:0 30 0] [126] 0 0
s 3.467739269 _9_ AGT  --- 1 191 cbr 210 [0 0 0 0] ------- [9:0 7:0 32 0] [191] 0 0
D 3.467739269 _9_ RTR  IFQ 1 127 cbr 230 [0 0 0 0] ------- [9:0 7:0 30 0] [127] 0 0
s 3.481739269 _9_ AGT  --- 1 192 cbr 210 [0 0 0 0] ------- [9:0 7:0 32 0] [192] 0 0
D 3.481739269 _9_ RTR  IFQ 1 128 cbr 230 [0 0 0 0] ------- [9:0 7:0 30 0] [128] 0 0
s 3.495739269 _9_ AGT  --- 1 193 cbr 210 [0 0 0 0] ------- [9:0 7:0 32 0] [193] 0 0
D 3.495739269 _9_ RTR  IFQ 1 129 cbr 230 [0 0 0 0] ------- [9:0 7:0 30 0] [129] 0 0
s 3.509739269 _9_ AGT  --- 1 194 cbr 210 [0 0 0 0] ------- [9:0 7:0 32 0] [194] 0 0
D 3.509739269 _9_ RTR  IFQ 1 130 cbr 230 [0 0 0 0] ------- [9:0 7:0 30 0] [130] 0 0
s 3.523739269 _9_ AGT  --- 1 195 cbr 210 [0 0 0 0] ------- [9:0 7:0 32 0] [195] 0 0
D 3.523739269 _9_ RTR  IFQ 1 131 cbr 230 [0 0 0 0] ------- [9:0 7:0 30 0] [131] 0 0
s 3.537739269 _9_ AGT  --- 1 196 cbr 210 [0 0 0 0] ------- [9:0 7:0 32 0] [196] 0 0
D 3.537739269 _9_ RTR  IFQ 1 132 cbr 230 [0 0 0 0] ------- [9:0 7:0 30 0] [132] 0 0
s 3.551739269 _9_ AGT  --- 1 197 cbr 210 [0 0 0 0] ------- [9:0 7:0 32 0] [197] 0 0
D 3.551739269 _9_ RTR  IFQ 1 133 cbr 230 [0 0 0 0] ------- [9:0 7:0 30 0] [133] 0 0
s 3.565739269 _9_ AGT  --- 1 198 cbr 210 [0 0 0 0] ------- [9:0 7:0 32 0] [198] 0 0
D 3.565739269 _9_ RTR  IFQ 1 134 cbr 230 [0 0 0 0] ------- [9:0 7:0 30 0] [134] 0 0
s 3.579739269 _9_ AGT  --- 1 199 cbr 210 [0 0 0 0] ------- [9:0 7:0 32 0] [199] 0 0
D 3.579739269 _9_ RTR  IFQ 1 135 cbr 230 [0 0 0 0] ------- [9:0 7:0 30 0] [135] 0 0
s 3.593739269 _9_ AGT  --- 1 200 cbr 210 [0 0 0 0] ------- [9:0 7:0 32 0] [200] 0 0
D 3.593739269 _9_ RTR  IFQ 1 136 cbr 230 [0 0 0 0] ------- [9:0 7:0 30 0] [136] 0 0
s 3.607739269 _9_ AGT  --- 1 201 cbr 210 [0 0 0 0] ------- [9:0 7:0 32 0] [201] 0 0
D 3.607739269 _9_ RTR  IFQ 1 137 cbr 230 [0 0 0 0] ------- [9:0 7:0 30 0] [137] 0 0
s 3.621739269 _9_ AGT  --- 1 202 cbr 210 [0 0 0 0] ------- [9:0 7:0 32 0] [202] 0 0
D 3.621739269 _9_ RTR  IFQ 1 138 cbr 230 [0 0 0 0] ------- [9:0 7:0 30 0] [138] 0 0
s 3.635739269 _9_ AGT  --- 1 203 cbr 210 [0 0 0 0] ------- [9:0 7:0 32 0] [203] 0 0
D 3.635739269 _9_ RTR  IFQ 1 139 cbr 230 [0 0 0 0] ------- [9:0 7:0 30 0] [139] 0 0
s 3.649739269 _9_ AGT  --- 1 204 cbr 210 [0 0 0 0] ------- [9:0 7:0 32 0] [204] 0 0
D 3.649739269 _9_ RTR  IFQ 1 140 cbr 230 [0 0 0 0] ------- [9:0 7:0 30 0] [140] 0 0
s 3.663739269 _9_ AGT  --- 1 205 cbr 210 [0 0 0 0] ------- [9:0 7:0 32 0] [205] 0 0
D 3.663739269 _9_ RTR  IFQ 1 141 cbr 230 [0 0 0 0] ------- [9:0 7:0 30 0] [141] 0 0
s 3.677739269 _9_ AGT  --- 1 206 cbr 210 [0 0 0 0] ------- [9:0 7:0 32 0] [206] 0 0
D 3.677739269 _9_ RTR  IFQ 1 142 cbr 230 [0 0 0 0] ------- [9:0 7:0 30 0] [142] 0 0
s 3.691739269 _9_ AGT  --- 1 207 cbr 210 [0 0 0 0] ------- [9:0 7:0 32 0] [207] 0 0
D 3.691739269 _9_ RTR  IFQ 1 143 cbr 230 [0 0 0 0] ------- [9:0 7:0 30 0] [143] 0 0
s 3.705739269 _9_ AGT  --- 1 208 cbr 210 [0 0 0 0] ------- [9:0 7:0 32 0] [208] 0 0
D 3.705739269 _9_ RTR  IFQ 1 144 cbr 230 [0 0 0 0] ------- [9:0 7:0 30 0] [144] 0 0
s 3.719739269 _9_ AGT  --- 1 209 cbr 210 [0 0 0 0] ------- [9:0 7:0 32 0] [209] 0 0
D 3.719739269 _9_ RTR  IFQ 1 145 cbr 230 [0 0 0 0] ------- [9:0 7:0 30 0] [145] 0 0
s 3.733739269 _9_ AGT  --- 1 210 cbr 210 [0 0 0 0] ------- [9:0 7:0 32 0] [210] 0 0
D 3.733739269 _9_ RTR  IFQ 1 146 cbr 230 [0 0 0 0] ------- [9:0 7:0 30 0] [146] 0 0
s 3.747739269 _9_ AGT  --- 1 211 cbr 210 [0 0 0 0] ------- [9:0 7:0 32 0] [211] 0 0
D 3.747739269 _9_ RTR  IFQ 1 147 cbr 230 [0 0 0 0] ------- [9:0 7:0 30 0] [147] 0 0
s 3.761739269 _9_ AGT  --- 1 212 cbr 210 [0 0 0 0] ------- [9:0 7:0 32 0] [212] 0 0
D 3.761739269 _9_ RTR  IFQ 1 148 cbr 230 [0 0 0 0] ------- [9:0 7:0 30 0] [148] 0 0