s 1.919121548 _10_ AGT  --- 1 0 cbr 210 [0 0 0 0] ------- [10:0 15:0 32 0] [0] 0 0
s 1.934394275 _10_ AGT  --- 1 1 cbr 210 [0 0 0 0] ------- [10:0 15:0 32 0] [1] 0 0
s 1.949667002 _10_ AGT  --- 1 2 cbr 210 [0 0 0 0] ------- [10:0 15:0 32 0] [2] 0 0
s 1.964939729 _10_ AGT  --- 1 3 cbr 210 [0 0 0 0] ------- [10:0 15:0 32 0] [3] 0 0
s 1.980212457 _10_ AGT  --- 1 4 cbr 210 [0 0 0 0] ------- [10:0 15:0 32 0] [4] 0 0
s 1.995485184 _10_ AGT  --- 1 5 cbr 210 [0 0 0 0] ------- [10:0 15:0 32 0] [5] 0 0
s 2.010757911 _10_ AGT  --- 1 6 cbr 210 [0 0 0 0] ------- [10:0 15:0 32 0] [6] 0 0
s 2.026030638 _10_ AGT  --- 1 7 cbr 210 [0 0 0 0] ------- [10:0 15:0 32 0] [7] 0 0
s 2.041303366 _10_ AGT  --- 1 8 cbr 210 [0 0 0 0] ------- [10:0 15:0 32 0] [8] 0 0
s 2.056576093 _10_ AGT  --- 1 9 cbr 210 [0 0 0 0] ------- [10:0 15:0 32 0] [9] 0 0
s 2.071848820 _10_ AGT  --- 1 10 cbr 210 [0 0 0 0] ------- [10:0 15:0 32 0] [10] 0 0
s 2.087121548 _10_ AGT  --- 1 11 cbr 210 [0 0 0 0] ------- [10:0 15:0 32 0] [11] 0 0
s 2.102394275 _10_ AGT  --- 1 12 cbr 210 [0 0 0 0] ------- [10:0 15:0 32 0] [12] 0 0
s 2.117667002 _10_ AGT  --- 1 13 cbr 210 [0 0 0 0] ------- [10:0 15:0 32 0] [13] 0 0
s 2.132939729 _10_ AGT  --- 1 14 cbr 210 [0 0 0 0] ------- [10:0 15:0 32 0] [14] 0 0
s 2.148212457 _10_ AGT  --- 1 15 cbr 210 [0 0 0 0] ------- [10:0 15:0 32 0] [15] 0 0
s 2.163485184 _10_ AGT  --- 1 16 cbr 210 [0 0 0 0] ------- [10:0 15:0 32 0] [16] 0 0
s 2.178757911 _10_ AGT  --- 1 17 cbr 210 [0 0 0 0] ------- [10:0 15:0 32 0] [17] 0 0
s 2.194030638 _10_ AGT  --- 1 18 cbr 210 [0 0 0 0] ------- [10:0 15:0 32 0] [18] 0 0
s 2.209303366 _10_ AGT  --- 1 19 cbr 210 [0 0 0 0] ------- [10:0 15:0 32 0] [19] 0 0
s 2.224576093 _10_ AGT  --- 1 20 cbr 210 [0 0 0 0] ------- [10:0 15:0 32 0] [20] 0 0
s 2.239848820 _10_ AGT  --- 1 21 cbr 210 [0 0 0 0] ------- [10:0 15:0 32 0] [21] 0 0
s 2.255121548 _10_ AGT  --- 1 22 cbr 210 [0 0 0 0] ------- [10:0 15:0 32 0] [22] 0 0
s 2.270394275 _10_ AGT  --- 1 23 cbr 210 [0 0 0 0] ------- [10:0 15:0 32 0] [23] 0 0
s 2.285667002 _10_ AGT  --- 1 24 cbr 210 [0 0 0 0] ------- [10:0 15:0 32 0] [24] 0 0
s 2.300939729 _10_ AGT  --- 1 25 cbr 210 [0 0 0 0] ------- [10:0 15:0 32 0] [25] 0 0
s 2.316212457 _10_ AGT  --- 1 26 cbr 210 [0 0 0 0] ------- [10:0 15:0 32 0] [26] 0 0
s 2.331485184 _10_ AGT  --- 1 27 cbr 210 [0 0 0 0] ------- [10:0 15:0 32 0] [27] 0 0
r 2.335153667 _15_ AGT  --- 1 0 cbr 230 [5 f a 0] ------- [10:0 15:0 30 15] [0] 1 0
r 2.341153667 _15_ AGT  --- 1 25 cbr 230 [5 f a 0] ------- [10:0 15:0 30 15] [25] 1 0
s 2.346757911 _10_ AGT  --- 1 28 cbr 210 [0 0 0 0] ------- [10:0 15:0 32 0] [28] 0 0
s 2.362030638 _10_ AGT  --- 1 29 cbr 210 [0 0 0 0] ------- [10:0 15:0 32 0] [29] 0 0
s 2.377303366 _10_ AGT  --- 1 30 cbr 210 [0 0 0 0] ------- [10:0 15:0 32 0] [30] 0 0
s 2.392576093 _10_ AGT  --- 1 31 cbr 210 [0 0 0 0] ------- [10:0 15:0 32 0] [31] 0 0
r 2.395153667 _15_ AGT  --- 1 1 cbr 230 [5 f a 0] ------- [10:0 15:0 30 15] [1] 1 0
r 2.401153667 _15_ AGT  --- 1 2 cbr 230 [5 f a 0] ------- [10:0 15:0 30 15] [2] 1 0
s 2.407848820 _10_ AGT  --- 1 32 cbr 210 [0 0 0 0] ------- [10:0 15:0 32 0] [32] 0 0
s 2.423121548 _10_ AGT  --- 1 33 cbr 210 [0 0 0 0] ------- [10:0 15:0 32 0] [33] 0 0
s 2.438394275 _10_ AGT  --- 1 34 cbr 210 [0 0 0 0] ------- [10:0 15:0 32 0] [34] 0 0
s 2.453667002 _10_ AGT  --- 1 35 cbr 210 [0 0 0 0] ------- [10:0 15:0 32 0] [35] 0 0
r 2.455153667 _15_ AGT  --- 1 26 cbr 230 [5 f a 0] ------- [10:0 15:0 30 15] [26] 1 0
r 2.461153667 _15_ AGT  --- 1 3 cbr 230 [5 f a 0] ------- [10:0 15:0 30 15] [3] 1 0
s 2.468939729 _10_ AGT  --- 1 36 cbr 210 [0 0 0 0] ------- [10:0 15:0 32 0] [36] 0 0
s 2.484212457 _10_ AGT  --- 1 37 cbr 210 [0 0 0 0] ------- [10:0 15:0 32 0] [37] 0 0
s 2.499485184 _10_ AGT  --- 1 38 cbr 210 [0 0 0 0] ------- [10:0 15:0 32 0] [38] 0 0
s 2.514757911 _10_ AGT  --- 1 39 cbr 210 [0 0 0 0] ------- [10:0 15:0 32 0] [39] 0 0
r 2.515153667 _15_ AGT  --- 1 27 cbr 230 [5 f a 0] ------- [10:0 15:0 30 15] [27] 1 0
r 2.521153667 _15_ AGT  --- 1 4 cbr 230 [5 f a 0] ------- [10:0 15:0 30 15] [4] 1 0
s 2.530030638 _10_ AGT  --- 1 40 cbr 210 [0 0 0 0] ------- [10:0 15:0 32 0] [40] 0 0
s 2.545303366 _10_ AGT  --- 1 41 cbr 210 [0 0 0 0] ------- [10:0 15:0 32 0] [41] 0 0
s 2.560576093 _10_ AGT  --- 1 42 cbr 210 [0 0 0 0] ------- [10:0 15:0 32 0] [42] 0 0
r 2.575153667 _15_ AGT  --- 1 5 cbr 230 [5 f a 0] ------- [10:0 15:0 30 15] [5] 1 0
s 2.575848820 _10_ AGT  --- 1 43 cbr 210 [0 0 0 0] ------- [10:0 15:0 32 0] [43] 0 0
r 2.581153667 _15_ AGT  --- 1 28 cbr 230 [5 f a 0] ------- [10:0 15:0 30 15] [28] 1 0
s 2.591121548 _10_ AGT  --- 1 44 cbr 210 [0 0 0 0] ------- [10:0 15:0 32 0] [44] 0 0
s 2.606394275 _10_ AGT  --- 1 45 cbr 210 [0 0 0 0] ------- [10:0 15:0 32 0] [45] 0 0
s 2.621667002 _10_ AGT  --- 1 46 cbr 210 [0 0 0 0] ------- [10:0 15:0 32 0] [46] 0 0
r 2.635153667 _15_ AGT  --- 1 6 cbr 230 [5 f a 0] ------- [10:0 15:0 30 15] [6] 1 0
s 2.636939729 _10_ AGT  --- 1 47 cbr 210 [0 0 0 0] ------- [10:0 15:0 32 0] [47] 0 0
r 2.641153667 _15_ AGT  --- 1 29 cbr 230 [5 f a 0] ------- [10:0 15:0 30 15] [29] 1 0
s 2.652212457 _10_ AGT  --- 1 48 cbr 210 [0 0 0 0] ------- [10:0 15:0 32 0] [48] 0 0
s 2.667485184 _10_ AGT  --- 1 49 cbr 210 [0 0 0 0] ------- [10:0 15:0 32 0] [49] 0 0
s 2.682757911 _10_ AGT  --- 1 50 cbr 210 [0 0 0 0] ------- [10:0 15:0 32 0] [50] 0 0
r 2.695153667 _15_ AGT  --- 1 7 cbr 230 [5 f a 0] ------- [10:0 15:0 30 15] [7] 1 0
s 2.698030638 _10_ AGT  --- 1 51 cbr 210 [0 0 0 0] ------- [10:0 15:0 32 0] [51] 0 0
r 2.701153667 _15_ AGT  --- 1 8 cbr 230 [5 f a 0] ------- [10:0 15:0 30 15] [8] 1 0
s 2.713303366 _10_ AGT  --- 1 52 cbr 210 [0 0 0 0] ------- [10:0 15:0 32 0] [52] 0 0
s 2.728576093 _10_ AGT  --- 1 53 cbr 210 [0 0 0 0] ------- [10:0 15:0 32 0] [53] 0 0
s 2.743848820 _10_ AGT  --- 1 54 cbr 210 [0 0 0 0] ------- [10:0 15:0 32 0] [54] 0 0
r 2.755153667 _15_ AGT  --- 1 30 cbr 230 [5 f a 0] ------- [10:0 15:0 30 15] [30] 1 0
s 2.759121548 _10_ AGT  --- 1 55 cbr 210 [0 0 0 0] ------- [10:0 15:0 32 0] [55] 0 0
r 2.761153667 _15_ AGT  --- 1 9 cbr 230 [5 f a 0] ------- [10:0 15:0 30 15] [9] 1 0
s 2.774394275 _10_ AGT  --- 1 56 cbr 210 [0 0 0 0] ------- [10:0 15:0 32 0] [56] 0 0
s 2.789667002 _10_ AGT  --- 1 57 cbr 210 [0 0 0 0] ------- [10:0 15:0 32 0] [57] 0 0
s 2.804939729 _10_ AGT  --- 1 58 cbr 210 [0 0 0 0] ------- [10:0 15:0 32 0] [58] 0 0
r 2.815153667 _15_ AGT  --- 1 10 cbr 230 [5 f a 0] ------- [10:0 15:0 30 15] [10] 1 0
s 2.820212457 _10_ AGT  --- 1 59 cbr 210 [0 0 0 0] ------- [10:0 15:0 32 0] [59] 0 0
r 2.821153667 _15_ AGT  --- 1 31 cbr 230 [5 f a 0] ------- [10:0 15:0 30 15] [31] 1 0
s 2.835485184 _10_ AGT  --- 1 60 cbr 210 [0 0 0 0] ------- [10:0 15:0 32 0] [60] 0 0
s 2.850757911 _10_ AGT  --- 1 61 cbr 210 [0 0 0 0] ------- [10:0 15:0 32 0] [61] 0 0
s 2.866030638 _10_ AGT  --- 1 62 cbr 210 [0 0 0 0] ------- [10:0 15:0 32 0] [62] 0 0
r 2.875153667 _15_ AGT  --- 1 11 cbr 230 [5 f a 0] ------- [10:0 15:0 30 15] [11] 1 0
r 2.881153667 _15_ AGT  --- 1 32 cbr 230 [5 f a 0] ------- [10:0 15:0 30 15] [32] 1 0
s 2.881303366 _10_ AGT  --- 1 63 cbr 210 [0 0 0 0] ------- [10:0 15:0 32 0] [63] 0 0
s 2.896576093 _10_ AGT  --- 1 64 cbr 210 [0 0 0 0] ------- [10:0 15:0 32 0] [64] 0 0
s 2.911848820 _10_ AGT  --- 1 65 cbr 210 [0 0 0 0] ------- [10:0 15:0 32 0] [65] 0 0
s 2.927121548 _10_ AGT  --- 1 66 cbr 210 [0 0 0 0] ------- [10:0 15:0 32 0] [66] 0 0
r 2.935153667 _15_ AGT  --- 1 12 cbr 230 [5 f a 0] ------- [10:0 15:0 30 15] [12] 1 0
r 2.941153667 _15_ AGT  --- 1 13 cbr 230 [5 f a 0] ------- [10:0 15:0 30 15] [13] 1 0
s 2.942394275 _10_ AGT  --- 1 67 cbr 210 [0 0 0 0] ------- [10:0 15:0 32 0] [67] 0 0
s 2.957667002 _10_ AGT  --- 1 68 cbr 210 [0 0 0 0] ------- [10:0 15:0 32 0] [68] 0 0
s 2.972939729 _10_ AGT  --- 1 69 cbr 210 [0 0 0 0] ------- [10:0 15:0 32 0] [69] 0 0
s 2.988212457 _10_ AGT  --- 1 70 cbr 210 [0 0 0 0] ------- [10:0 15:0 32 0] [70] 0 0
r 2.995153667 _15_ AGT  --- 1 33 cbr 230 [5 f a 0] ------- [10:0 15:0 30 15] [33] 1 0
r 3.001153667 _15_ AGT  --- 1 14 cbr 230 [5 f a 0] ------- [10:0 15:0 30 15] [14] 1 0
s 3.003485184 _10_ AGT  --- 1 71 cbr 210 [0 0 0 0] ------- [10:0 15:0 32 0] [71] 0 0
s 3.018757911 _10_ AGT  --- 1 72 cbr 210 [0 0 0 0] ------- [10:0 15:0 32 0] [72] 0 0
s 3.034030638 _10_ AGT  --- 1 73 cbr 210 [0 0 0 0] ------- [10:0 15:0 32 0] [73] 0 0
s 3.049303366 _10_ AGT  --- 1 74 cbr 210 [0 0 0 0] ------- [10:0 15:0 32 0] [74] 0 0
D 3.049328366 _10_ IFQ  --- 1 74 cbr 230 [0 f a 0] ------- [10:0 15:0 30 15] [74] 0 0
r 3.055153667 _15_ AGT  --- 1 34 cbr 230 [5 f a 0] ------- [10:0 15:0 30 15] [34] 1 0
r 3.061153667 _15_ AGT  --- 1 15 cbr 230 [5 f a 0] ------- [10:0 15:0 30 15] [15] 1 0
s 3.064576093 _10_ AGT  --- 1 75 cbr 210 [0 0 0 0] ------- [10:0 15:0 32 0] [75] 0 0
s 3.079848820 _10_ AGT  --- 1 76 cbr 210 [0 0 0 0] ------- [10:0 15:0 32 0] [76] 0 0
s 3.095121548 _10_ AGT  --- 1 77 cbr 210 [0 0 0 0] ------- [10:0 15:0 32 0] [77] 0 0
D 3.095146548 _10_ IFQ  --- 1 77 cbr 230 [0 f a 0] ------- [10:0 15:0 30 15] [77] 0 0
s 3.110394275 _10_ AGT  --- 1 78 cbr 210 [0 0 0 0] ------- [10:0 15:0 32 0] [78] 0 0
D 3.110419275 _10_ IFQ  --- 1 78 cbr 230 [0 f a 0] ------- [10:0 15:0 30 15] [78] 0 0
r 3.115153667 _15_ AGT  --- 1 16 cbr 230 [5 f a 0] ------- [10:0 15:0 30 15] [16] 1 0
r 3.121153667 _15_ AGT  --- 1 35 cbr 230 [5 f a 0] ------- [10:0 15:0 30 15] [35] 1 0
s 3.125667002 _10_ AGT  --- 1 79 cbr 210 [0 0 0 0] ------- [10:0 15:0 32 0] [79] 0 0
s 3.140939729 _10_ AGT  --- 1 80 cbr 210 [0 0 0 0] ------- [10:0 15:0 32 0] [80] 0 0
s 3.156212457 _10_ AGT  --- 1 81 cbr 210 [0 0 0 0] ------- [10:0 15:0 32 0] [81] 0 0
D 3.156237457 _10_ IFQ  --- 1 81 cbr 230 [0 f a 0] ------- [10:0 15:0 30 15] [81] 0 0
s 3.171485184 _10_ AGT  --- 1 82 cbr 210 [0 0 0 0] ------- [10:0 15:0 32 0] [82] 0 0
D 3.171510184 _10_ IFQ  --- 1 82 cbr 230 [0 f a 0] ------- [10:0 15:0 30 15] [82] 0 0
r 3.175153667 _15_ AGT  --- 1 17 cbr 230 [5 f a 0] ------- [10:0 15:0 30 15] [17] 1 0
r 3.181153667 _15_ AGT  --- 1 36 cbr 230 [5 f a 0] ------- [10:0 15:0 30 15] [36] 1 0
s 3.186757911 _10_ AGT  --- 1 83 cbr 210 [0 0 0 0] ------- [10:0 15:0 32 0] [83] 0 0
s 3.202030638 _10_ AGT  --- 1 84 cbr 210 [0 0 0 0] ------- [10:0 15:0 32 0] [84] 0 0
s 3.217303366 _10_ AGT  --- 1 85 cbr 210 [0 0 0 0] ------- [10:0 15:0 32 0] [85] 0 0
D 3.217328366 _10_ IFQ  --- 1 85 cbr 230 [0 f a 0] ------- [10:0 15:0 30 15] [85] 0 0
s 3.232576093 _10_ AGT  --- 1 86 cbr 210 [0 0 0 0] ------- [10:0 15:0 32 0] [86] 0 0
D 3.232601093 _10_ IFQ  --- 1 86 cbr 230 [0 f a 0] ------- [10:0 15:0 30 15] [86] 0 0
r 3.235153667 _15_ AGT  --- 1 18 cbr 230 [5 f a 0] ------- [10:0 15:0 30 15] [18] 1 0
r 3.241153667 _15_ AGT  --- 1 19 cbr 230 [5 f a 0] ------- [10:0 15:0 30 15] [19] 1 0
s 3.247848820 _10_ AGT  --- 1 87 cbr 210 [0 0 0 0] ------- [10:0 15:0 32 0] [87] 0 0
s 3.263121548 _10_ AGT  --- 1 88 cbr 210 [0 0 0 0] ------- [10:0 15:0 32 0] [88] 0 0
s 3.278394275 _10_ AGT  --- 1 89 cbr 210 [0 0 0 0] ------- [10:0 15:0 32 0] [89] 0 0
D 3.278419275 _10_ IFQ  --- 1 89 cbr 230 [0 f a 0] ------- [10:0 15:0 30 15] [89] 0 0
s 3.293667002 _10_ AGT  --- 1 90 cbr 210 [0 0 0 0] ------- [10:0 15:0 32 0] [90] 0 0
D 3.293692002 _10_ IFQ  --- 1 90 cbr 230 [0 f a 0] ------- [10:0 15:0 30 15] [90] 0 0
r 3.295153667 _15_ AGT  --- 1 37 cbr 230 [5 f a 0] ------- [10:0 15:0 30 15] [37] 1 0
r 3.301153667 _15_ AGT  --- 1 20 cbr 230 [5 f a 0] ------- [10:0 15:0 30 15] [20] 1 0
s 3.308939729 _10_ AGT  --- 1 91 cbr 210 [0 0 0 0] ------- [10:0 15:0 32 0] [91] 0 0
s 3.324212457 _10_ AGT  --- 1 92 cbr 210 [0 0 0 0] ------- [10:0 15:0 32 0] [92] 0 0
s 3.339485184 _10_ AGT  --- 1 93 cbr 210 [0 0 0 0] ------- [10:0 15:0 32 0] [93] 0 0
D 3.339510184 _10_ IFQ  --- 1 93 cbr 230 [0 f a 0] ------- [10:0 15:0 30 15] [93] 0 0
s 3.354757911 _10_ AGT  --- 1 94 cbr 210 [0 0 0 0] ------- [10:0 15:0 32 0] [94] 0 0
D 3.354782911 _10_ IFQ  --- 1 94 cbr 230 [0 f a 0] ------- [10:0 15:0 30 15] [94] 0 0
r 3.355153667 _15_ AGT  --- 1 38 cbr 230 [5 f a 0] ------- [10:0 15:0 30 15] [38] 1 0
r 3.361153667 _15_ AGT  --- 1 21 cbr 230 [5 f a 0] ------- [10:0 15:0 30 15] [21] 1 0
s 3.370030638 _10_ AGT  --- 1 95 cbr 210 [0 0 0 0] ------- [10:0 15:0 32 0] [95] 0 0
s 3.385303366 _10_ AGT  --- 1 96 cbr 210 [0 0 0 0] ------- [10:0 15:0 32 0] [96] 0 0
s 3.400576093 _10_ AGT  --- 1 97 cbr 210 [0 0 0 0] ------- [10:0 15:0 32 0] [97] 0 0
D 3.400601093 _10_ IFQ  --- 1 97 cbr 230 [0 f a 0] ------- [10:0 15:0 30 15] [97] 0 0
r 3.415153667 _15_ AGT  --- 1 22 cbr 230 [5 f a 0] ------- [10:0 15:0 30 15] [22] 1 0
s 3.415848820 _10_ AGT  --- 1 98 cbr 210 [0 0 0 0] ------- [10:0 15:0 32 0] [98] 0 0
r 3.421153667 _15_ AGT  --- 1 39 cbr 230 [5 f a 0] ------- [10:0 15:0 30 15] [39] 1 0
s 3.431121548 _10_ AGT  --- 1 99 cbr 210 [0 0 0 0] ------- [10:0 15:0 32 0] [99] 0 0
s 3.446394275 _10_ AGT  --- 1 100 cbr 210 [0 0 0 0] ------- [10:0 15:0 32 0] [100] 0 0
D 3.446419275 _10_ IFQ  --- 1 100 cbr 230 [0 f a 0] ------- [10:0 15:0 30 15] [100] 0 0
s 3.461667002 _10_ AGT  --- 1 101 cbr 210 [0 0 0 0] ------- [10:0 15:0 32 0] [101] 0 0
D 3.461692002 _10_ IFQ  --- 1 101 cbr 230 [0 f a 0] ------- [10:0 15:0 30 15] [101] 0 0
r 3.475153667 _15_ AGT  --- 1 23 cbr 230 [5 f a 0] ------- [10:0 15:0 30 15] [23] 1 0
s 3.476939729 _10_ AGT  --- 1 102 cbr 210 [0 0 0 0] ------- [10:0 15:0 32 0] [102] 0 0
r 3.481153667 _15_ AGT  --- 1 40 cbr 230 [5 f a 0] ------- [10:0 15:0 30 15] [40] 1 0
s 3.492212457 _10_ AGT  --- 1 103 cbr 210 [0 0 0 0] ------- [10:0 15:0 32 0] [103] 0 0
s 3.507485184 _10_ AGT  --- 1 104 cbr 210 [0 0 0 0] ------- [10:0 15:0 32 0] [104] 0 0
D 3.507510184 _10_ IFQ  --- 1 104 cbr 230 [0 f a 0] ------- [10:0 15:0 30 15] [104] 0 0
s 3.522757911 _10_ AGT  --- 1 105 cbr 210 [0 0 0 0] ------- [10:0 15:0 32 0] [105] 0 0
D 3.522782911 _10_ IFQ  --- 1 105 cbr 230 [0 f a 0] ------- [10:0 15:0 30 15] [105] 0 0
r 3.535153667 _15_ AGT  --- 1 24 cbr 230 [5 f a 0] ------- [10:0 15:0 30 15] [24] 1 0
s 3.538030638 _10_ AGT  --- 1 106 cbr 210 [0 0 0 0] ------- [10:0 15:0 32 0] [106] 0 0
r 3.541153667 _15_ AGT  --- 1 41 cbr 230 [5 f a 0] ------- [10:0 15:0 30 15] [41] 1 0
s 3.553303366 _10_ AGT  --- 1 107 cbr 210 [0 0 0 0] ------- [10:0 15:0 32 0] [107] 0 0
s 3.568576093 _10_ AGT  --- 1 108 cbr 210 [0 0 0 0] ------- [10:0 15:0 32 0] [108] 0 0
D 3.568601093 _10_ IFQ  --- 1 108 cbr 230 [0 f a 0] ------- [10:0 15:0 30 15] [108] 0 0
s 3.583848820 _10_ AGT  --- 1 109 cbr 210 [0 0 0 0] ------- [10:0 15:0 32 0] [109] 0 0
D 3.583873820 _10_ IFQ  --- 1 109 cbr 230 [0 f a 0] ------- [10:0 15:0 30 15] [109] 0 0
r 3.595153667 _15_ AGT  --- 1 42 cbr 230 [5 f a 0] ------- [10:0 15:0 30 15] [42] 1 0
s 3.599121548 _10_ AGT  --- 1 110 cbr 210 [0 0 0 0] ------- [10:0 15:0 32 0] [110] 0 0
r 3.601153667 _15_ AGT  --- 1 43 cbr 230 [5 f a 0] ------- [10:0 15:0 30 15] [43] 1 0
s 3.614394275 _10_ AGT  --- 1 111 cbr 210 [0 0 0 0] ------- [10:0 15:0 32 0] [111] 0 0
s 3.629667002 _10_ AGT  --- 1 112 cbr 210 [0 0 0 0] ------- [10:0 15:0 32 0] [112] 0 0
D 3.629692002 _10_ IFQ  --- 1 112 cbr 230 [0 f a 0] ------- [10:0 15:0 30 15] [112] 0 0
s 3.644939729 _10_ AGT  --- 1 113 cbr 210 [0 0 0 0] ------- [10:0 15:0 32 0] [113] 0 0
D 3.644964729 _10_ IFQ  --- 1 113 cbr 230 [0 f a 0] ------- [10:0 15:0 30 15] [113] 0 0
r 3.655153667 _15_ AGT  --- 1 44 cbr 230 [5 f a 0] ------- [10:0 15:0 30 15] [44] 1 0
s 3.660212457 _10_ AGT  --- 1 114 cbr 210 [0 0 0 0] ------- [10:0 15:0 32 0] [114] 0 0
r 3.661153667 _15_ AGT  --- 1 45 cbr 230 [5 f a 0] ------- [10:0 15:0 30 15] [45] 1 0
s 3.675485184 _10_ AGT  --- 1 115 cbr 210 [0 0 0 0] ------- [10:0 15:0 32 0] [115] 0 0
s 3.690757911 _10_ AGT  --- 1 116 cbr 210 [0 0 0 0] ------- [10:0 15:0 32 0] [116] 0 0
D 3.690782911 _10_ IFQ  --- 1 116 cbr 230 [0 f a 0] ------- [10:0 15:0 30 15] [116] 0 0
s 3.706030638 _10_ AGT  --- 1 117 cbr 210 [0 0 0 0] ------- [10:0 15:0 32 0] [117] 0 0
D 3.706055638 _10_ IFQ  --- 1 117 cbr 230 [0 f a 0] ------- [10:0 15:0 30 15] [117] 0 0
r 3.715153667 _15_ AGT  --- 1 46 cbr 230 [5 f a 0] ------- [10:0 15:0 30 15] [46] 1 0
r 3.721153667 _15_ AGT  --- 1 47 cbr 230 [5 f a 0] ------- [10:0 15:0 30 15] [47] 1 0
s 3.721303366 _10_ AGT  --- 1 118 cbr 210 [0 0 0 0] ------- [10:0 15:0 32 0] [118] 0 0
s 3.736576093 _10_ AGT  --- 1 119 cbr 210 [0 0 0 0] ------- [10:0 15:0 32 0] [119] 0 0
s 3.751848820 _10_ AGT  --- 1 120 cbr 210 [0 0 0 0] ------- [10:0 15:0 32 0] [120] 0 0
D 3.751873820 _10_ IFQ  --- 1 120 cbr 230 [0 f a 0] ------- [10:0 15:0 30 15] [120] 0 0
s 3.767121548 _10_ AGT  --- 1 121 cbr 210 [0 0 0 0] ------- [10:0 15:0 32 0] [121] 0 0
D 3.767146548 _10_ IFQ  --- 1 121 cbr 230 [0 f a 0] ------- [10:0 15:0 30 15] [121] 0 0
r 3.775153667 _15_ AGT  --- 1 48 cbr 230 [5 f a 0] ------- [10:0 15:0 30 15] [48] 1 0
r 3.781153667 _15_ AGT  --- 1 49 cbr 230 [5 f a 0] ------- [10:0 15:0 30 15] [49] 1 0
s 3.782394275 _10_ AGT  --- 1 122 cbr 210 [0 0 0 0] ------- [10:0 15:0 32 0] [122] 0 0
s 3.797667002 _10_ AGT  --- 1 123 cbr 210 [0 0 0 0] ------- [10:0 15:0 32 0] [123] 0 0
s 3.812939729 _10_ AGT  --- 1 124 cbr 210 [0 0 0 0] ------- [10:0 15:0 32 0] [124] 0 0
D 3.812964729 _10_ IFQ  --- 1 124 cbr 230 [0 f a 0] ------- [10:0 15:0 30 15] [124] 0 0
s 3.828212457 _10_ AGT  --- 1 125 cbr 210 [0 0 0 0] ------- [10:0 15:0 32 0] [125] 0 0
D 3.828237457 _10_ IFQ  --- 1 125 cbr 230 [0 f a 0] ------- [10:0 15:0 30 15] [125] 0 0
r 3.835153667 _15_ AGT  --- 1 50 cbr 230 [5 f a 0] ------- [10:0 15:0 30 15] [50] 1 0
r 3.841153667 _15_ AGT  --- 1 51 cbr 230 [5 f a 0] ------- [10:0 15:0 30 15] [51] 1 0
s 3.843485184 _10_ AGT  --- 1 126 cbr 210 [0 0 0 0] ------- [10:0 15:0 32 0] [126] 0 0
s 3.858757911 _10_ AGT  --- 1 127 cbr 210 [0 0 0 0] ------- [10:0 15:0 32 0] [127] 0 0
s 3.874030638 _10_ AGT  --- 1 128 cbr 210 [0 0 0 0] ------- [10:0 15:0 32 0] [128] 0 0
D 3.874055638 _10_ IFQ  --- 1 128 cbr 230 [0 f a 0] ------- [10:0 15:0 30 15] [128] 0 0
s 3.889303366 _10_ AGT  --- 1 129 cbr 210 [0 0 0 0] ------- [10:0 15:0 32 0] [129] 0 0
D 3.889328366 _10_ IFQ  --- 1 129 cbr 230 [0 f a 0] ------- [10:0 15:0 30 15] [129] 0 0
r 3.895153667 _15_ AGT  --- 1 52 cbr 230 [5 f a 0] ------- [10:0 15:0 30 15] [52] 1 0
r 3.901153667 _15_ AGT  --- 1 53 cbr 230 [5 f a 0] ------- [10:0 15:0 30 15] [53] 1 0
s 3.904576093 _10_ AGT  --- 1 130 cbr 210 [0 0 0 0] ------- [10:0 15:0 32 0] [130] 0 0
s 3.919848820 _10_ AGT  --- 1 131 cbr 210 [0 0 0 0] ------- [10:0 15:0 32 0] [131] 0 0
s 3.935121548 _10_ AGT  --- 1 132 cbr 210 [0 0 0 0] ------- [10:0 15:0 32 0] [132] 0 0
D 3.935146548 _10_ IFQ  --- 1 132 cbr 230 [0 f a 0] ------- [10:0 15:0 30 15] [132] 0 0
s 3.950394275 _10_ AGT  --- 1 133 cbr 210 [0 0 0 0] ------- [10:0 15:0 32 0] [133] 0 0
D 3.950419275 _10_ IFQ  --- 1 133 cbr 230 [0 f a 0] ------- [10:0 15:0 30 15] [133] 0 0
r 3.955153667 _15_ AGT  --- 1 54 cbr 230 [5 f a 0] ------- [10:0 15:0 30 15] [54] 1 0
r 3.961153667 _15_ AGT  --- 1 55 cbr 230 [5 f a 0] ------- [10:0 15:0 30 15] [55] 1 0
s 3.965667002 _10_ AGT  --- 1 134 cbr 210 [0 0 0 0] ------- [10:0 15:0 32 0] [134] 0 0
s 3.980939729 _10_ AGT  --- 1 135 cbr 210 [0 0 0 0] ------- [10:0 15:0 32 0] [135] 0 0
D 3.980964729 _10_ IFQ  --- 1 135 cbr 230 [0 f a 0] ------- [10:0 15:0 30 15] [135] 0 0
s 3.996212457 _10_ AGT  --- 1 136 cbr 210 [0 0 0 0] ------- [10:0 15:0 32 0] [136] 0 0
D 3.996237457 _10_ IFQ  --- 1 136 cbr 230 [0 f a 0] ------- [10:0 15:0 30 15] [136] 0 0
s 4.011485184 _10_ AGT  --- 1 137 cbr 210 [0 0 0 0] ------- [10:0 15:0 32 0] [137] 0 0
D 4.011510184 _10_ IFQ  --- 1 137 cbr 230 [0 f a 0] ------- [10:0 15:0 30 15] [137] 0 0
r 4.015153667 _15_ AGT  --- 1 56 cbr 230 [5 f a 0] ------- [10:0 15:0 30 15] [56] 1 0
s 4.026757911 _10_ AGT  --- 1 138 cbr 210 [0 0 0 0] ------- [10:0 15:0 32 0] [138] 0 0
s 4.042030638 _10_ AGT  --- 1 139 cbr 210 [0 0 0 0] ------- [10:0 15:0 32 0] [139] 0 0
s 4.057303366 _10_ AGT  --- 1 140 cbr 210 [0 0 0 0] ------- [10:0 15:0 32 0] [140] 0 0
D 4.057328366 _10_ IFQ  --- 1 140 cbr 230 [0 f a 0] ------- [10:0 15:0 30 15] [140] 0 0
s 4.072576093 _10_ AGT  --- 1 141 cbr 210 [0 0 0 0] ------- [10:0 15:0 32 0] [141] 0 0
D 4.072601093 _10_ IFQ  --- 1 141 cbr 230 [0 f a 0] ------- [10:0 15:0 30 15] [141] 0 0
r 4.075153667 _15_ AGT  --- 1 57 cbr 230 [5 f a 0] ------- [10:0 15:0 30 15] [57] 1 0
r 4.081153667 _15_ AGT  --- 1 58 cbr 230 [5 f a 0] ------- [10:0 15:0 30 15] [58] 1 0
s 4.087848820 _10_ AGT  --- 1 142 cbr 210 [0 0 0 0] ------- [10:0 15:0 32 0] [142] 0 0
s 4.103121548 _10_ AGT  --- 1 143 cbr 210 [0 0 0 0] ------- [10:0 15:0 32 0] [143] 0 0
s 4.118394275 _10_ AGT  --- 1 144 cbr 210 [0 0 0 0] ------- [10:0 15:0 32 0] [144] 0 0
D 4.118419275 _10_ IFQ  --- 1 144 cbr 230 [0 f a 0] ------- [10:0 15:0 30 15] [144] 0 0
s 4.133667002 _10_ AGT  --- 1 145 cbr 210 [0 0 0 0] ------- [10:0 15:0 32 0] [145] 0 0
D 4.133692002 _10_ IFQ  --- 1 145 cbr 230 [0 f a 0] ------- [10:0 15:0 30 15] [145] 0 0
r 4.135153667 _15_ AGT  --- 1 59 cbr 230 [5 f a 0] ------- [10:0 15:0 30 15] [59] 1 0
r 4.141153667 _15_ AGT  --- 1 60 cbr 230 [5 f a 0] ------- [10:0 15:0 30 15] [60] 1 0
s 4.148939729 _10_ AGT  --- 1 146 cbr 210 [0 0 0 0] ------- [10:0 15:0 32 0] [146] 0 0
s 4.164212457 _10_ AGT  --- 1 147 cbr 210 [0 0 0 0] ------- [10:0 15:0 32 0] [147] 0 0
s 4.179485184 _10_ AGT  --- 1 148 cbr 210 [0 0 0 0] ------- [10:0 15:0 32 0] [148] 0 0
D 4.179510184 _10_ IFQ  --- 1 148 cbr 230 [0 f a 0] ------- [10:0 15:0 30 15] [148] 0 0
s 4.194757911 _10_ AGT  --- 1 149 cbr 210 [0 0 0 0] ------- [10:0 15:0 32 0] [149] 0 0
D 4.194782911 _10_ IFQ  --- 1 149 cbr 230 [0 f a 0] ------- [10:0 15:0 30 15] [149] 0 0
r 4.195153667 _15_ AGT  --- 1 61 cbr 230 [5 f a 0] ------- [10:0 15:0 30 15] [61] 1 0
r 4.201153667 _15_ AGT  --- 1 62 cbr 230 [5 f a 0] ------- [10:0 15:0 30 15] [62] 1 0
s 4.210030638 _10_ AGT  --- 1 150 cbr 210 [0 0 0 0] ------- [10:0 15:0 32 0] [150] 0 0
s 4.225303366 _10_ AGT  --- 1 151 cbr 210 [0 0 0 0] ------- [10:0 15:0 32 0] [151] 0 0
s 4.240576093 _10_ AGT  --- 1 152 cbr 210 [0 0 0 0] ------- [10:0 15:0 32 0] [152] 0 0
D 4.240601093 _10_ IFQ  --- 1 152 cbr 230 [0 f a 0] ------- [10:0 15:0 30 15] [152] 0 0
r 4.255153667 _15_ AGT  --- 1 63 cbr 230 [5 f a 0] ------- [10:0 15:0 30 15] [63] 1 0
s 4.255848820 _10_ AGT  --- 1 153 cbr 210 [0 0 0 0] ------- [10:0 15:0 32 0] [153] 0 0
r 4.261153667 _15_ AGT  --- 1 64 cbr 230 [5 f a 0] ------- [10:0 15:0 30 15] [64] 1 0
s 4.271121548 _10_ AGT  --- 1 154 cbr 210 [0 0 0 0] ------- [10:0 15:0 32 0] [154] 0 0
s 4.286394275 _10_ AGT  --- 1 155 cbr 210 [0 0 0 0] ------- [10:0 15:0 32 0] [155] 0 0
D 4.286419275 _10_ IFQ  --- 1 155 cbr 230 [0 f a 0] ------- [10:0 15:0 30 15] [155] 0 0
s 4.301667002 _10_ AGT  --- 1 156 cbr 210 [0 0 0 0] ------- [10:0 15:0 32 0] [156] 0 0
D 4.301692002 _10_ IFQ  --- 1 156 cbr 230 [0 f a 0] ------- [10:0 15:0 30 15] [156] 0 0
r 4.315153667 _15_ AGT  --- 1 65 cbr 230 [5 f a 0] ------- [10:0 15:0 30 15] [65] 1 0
s 4.316939729 _10_ AGT  --- 1 157 cbr 210 [0 0 0 0] ------- [10:0 15:0 32 0] [157] 0 0
r 4.321153667 _15_ AGT  --- 1 66 cbr 230 [5 f a 0] ------- [10:0 15:0 30 15] [66] 1 0
s 4.332212457 _10_ AGT  --- 1 158 cbr 210 [0 0 0 0] ------- [10:0 15:0 32 0] [158] 0 0
s 4.347485184 _10_ AGT  --- 1 159 cbr 210 [0 0 0 0] ------- [10:0 15:0 32 0] [159] 0 0
D 4.347510184 _10_ IFQ  --- 1 159 cbr 230 [0 f a 0] ------- [10:0 15:0 30 15] [159] 0 0
s 4.362757911 _10_ AGT  --- 1 160 cbr 210 [0 0 0 0] ------- [10:0 15:0 32 0] [160] 0 0
D 4.362782911 _10_ IFQ  --- 1 160 cbr 230 [0 f a 0] ------- [10:0 15:0 30 15] [160] 0 0
r 4.375153667 _15_ AGT  --- 1 67 cbr 230 [5 f a 0] ------- [10:0 15:0 30 15] [67] 1 0
s 4.378030638 _10_ AGT  --- 1 161 cbr 210 [0 0 0 0] ------- [10:0 15:0 32 0] [161] 0 0
r 4.381153667 _15_ AGT  --- 1 68 cbr 230 [5 f a 0] ------- [10:0 15:0 30 15] [68] 1 0
s 4.393303366 _10_ AGT  --- 1 162 cbr 210 [0 0 0 0] ------- [10:0 15:0 32 0] [162] 0 0
s 4.408576093 _10_ AGT  --- 1 163 cbr 210 [0 0 0 0] ------- [10:0 15:0 32 0] [163] 0 0
D 4.408601093 _10_ IFQ  --- 1 163 cbr 230 [0 f a 0] ------- [10:0 15:0 30 15] [163] 0 0
s 4.423848820 _10_ AGT  --- 1 164 cbr 210 [0 0 0 0] ------- [10:0 15:0 32 0] [164] 0 0
D 4.423873820 _10_ IFQ  --- 1 164 cbr 230 [0 f a 0] ------- [10:0 15:0 30 15] [164] 0 0
r 4.435153667 _15_ AGT  --- 1 69 cbr 230 [5 f a 0] ------- [10:0 15:0 30 15] [69] 1 0
s 4.439121548 _10_ AGT  --- 1 165 cbr 210 [0 0 0 0] ------- [10:0 15:0 32 0] [165] 0 0
r 4.441153667 _15_ AGT  --- 1 70 cbr 230 [5 f a 0] ------- [10:0 15:0 30 15] [70] 1 0
s 4.454394275 _10_ AGT  --- 1 166 cbr 210 [0 0 0 0] ------- [10:0 15:0 32 0] [166] 0 0
s 4.469667002 _10_ AGT  --- 1 167 cbr 210 [0 0 0 0] ------- [10:0 15:0 32 0] [167] 0 0
D 4.469692002 _10_ IFQ  --- 1 167 cbr 230 [0 f a 0] ------- [10:0 15:0 30 15] [167] 0 0
s 4.484939729 _10_ AGT  --- 1 168 cbr 210 [0 0 0 0] ------- [10:0 15:0 32 0] [168] 0 0
D 4.484964729 _10_ IFQ  --- 1 168 cbr 230 [0 f a 0] ------- [10:0 15:0 30 15] [168] 0 0
r 4.495153667 _15_ AGT  --- 1 71 cbr 230 [5 f a 0] ------- [10:0 15:0 30 15] [71] 1 0
s 4.500212457 _10_ AGT  --- 1 169 cbr 210 [0 0 0 0] ------- [10:0 15:0 32 0] [169] 0 0
r 4.501153667 _15_ AGT  --- 1 72 cbr 230 [5 f a 0] ------- [10:0 15:0 30 15] [72] 1 0
s 4.515485184 _10_ AGT  --- 1 170 cbr 210 [0 0 0 0] ------- [10:0 15:0 32 0] [170] 0 0
s 4.530757911 _10_ AGT  --- 1 171 cbr 210 [0 0 0 0] ------- [10:0 15:0 32 0] [171] 0 0
D 4.530782911 _10_ IFQ  --- 1 171 cbr 230 [0 f a 0] ------- [10:0 15:0 30 15] [171] 0 0
s 4.546030638 _10_ AGT  --- 1 172 cbr 210 [0 0 0 0] ------- [10:0 15:0 32 0] [172] 0 0
D 4.546055638 _10_ IFQ  --- 1 172 cbr 230 [0 f a 0] ------- [10:0 15:0 30 15] [172] 0 0
r 4.555153667 _15_ AGT  --- 1 73 cbr 230 [5 f a 0] ------- [10:0 15:0 30 15] [73] 1 0
r 4.561153667 _15_ AGT  --- 1 75 cbr 230 [5 f a 0] ------- [10:0 15:0 30 15] [75] 1 0
s 4.561303366 _10_ AGT  --- 1 173 cbr 210 [0 0 0 0] ------- [10:0 15:0 32 0] [173] 0 0
s 4.576576093 _10_ AGT  --- 1 174 cbr 210 [0 0 0 0] ------- [10:0 15:0 32 0] [174] 0 0
s 4.591848820 _10_ AGT  --- 1 175 cbr 210 [0 0 0 0] ------- [10:0 15:0 32 0] [175] 0 0
D 4.591873820 _10_ IFQ  --- 1 175 cbr 230 [0 f a 0] ------- [10:0 15:0 30 15] [175] 0 0
s 4.607121548 _10_ AGT  --- 1 176 cbr 210 [0 0 0 0] ------- [10:0 15:0 32 0] [176] 0 0
D 4.607146548 _10_ IFQ  --- 1 176 cbr 230 [0 f a 0] ------- [10:0 15:0 30 15] [176] 0 0
r 4.615153667 _15_ AGT  --- 1 76 cbr 230 [5 f a 0] ------- [10:0 15:0 30 15] [76] 1 0
r 4.621153667 _15_ AGT  --- 1 79 cbr 230 [5 f a 0] ------- [10:0 15:0 30 15] [79] 1 0
s 4.622394275 _10_ AGT  --- 1 177 cbr 210 [0 0 0 0] ------- [10:0 15:0 32 0] [177] 0 0
s 4.637667002 _10_ AGT  --- 1 178 cbr 210 [0 0 0 0] ------- [10:0 15:0 32 0] [178] 0 0
s 4.652939729 _10_ AGT  --- 1 179 cbr 210 [0 0 0 0] ------- [10:0 15:0 32 0] [179] 0 0
D 4.652964729 _10_ IFQ  --- 1 179 cbr 230 [0 f a 0] ------- [10:0 15:0 30 15] [179] 0 0
s 4.668212457 _10_ AGT  --- 1 180 cbr 210 [0 0 0 0] ------- [10:0 15:0 32 0] [180] 0 0
D 4.668237457 _10_ IFQ  --- 1 180 cbr 230 [0 f a 0] ------- [10:0 15:0 30 15] [180] 0 0
r 4.675153667 _15_ AGT  --- 1 80 cbr 230 [5 f a 0] ------- [10:0 15:0 30 15] [80] 1 0
r 4.681153667 _15_ AGT  --- 1 83 cbr 230 [5 f a 0] ------- [10:0 15:0 30 15] [83] 1 0
r 4.735153667 _15_ AGT  --- 1 84 cbr 230 [5 f a 0] ------- [10:0 15:0 30 15] [84] 1 0
r 4.741153667 _15_ AGT  --- 1 87 cbr 230 [5 f a 0] ------- [10:0 15:0 30 15] [87] 1 0
r 4.795153667 _15_ AGT  --- 1 88 cbr 230 [5 f a 0] ------- [10:0 15:0 30 15] [88] 1 0
r 4.801153667 _15_ AGT  --- 1 91 cbr 230 [5 f a 0] ------- [10:0 15:0 30 15] [91] 1 0
r 4.855153667 _15_ AGT  --- 1 92 cbr 230 [5 f a 0] ------- [10:0 15:0 30 15] [92] 1 0
r 4.915153667 _15_ AGT  --- 1 95 cbr 230 [5 f a 0] ------- [10:0 15:0 30 15] [95] 1 0
r 4.921153667 _15_ AGT  --- 1 96 cbr 230 [5 f a 0] ------- [10:0 15:0 30 15] [96] 1 0
r 4.975153667 _15_ AGT  --- 1 98 cbr 230 [5 f a 0] ------- [10:0 15:0 30 15] [98] 1 0
r 4.981153667 _15_ AGT  --- 1 99 cbr 230 [5 f a 0] ------- [10:0 15:0 30 15] [99] 1 0
r 5.035153667 _15_ AGT  --- 1 102 cbr 230 [5 f a 0] ------- [10:0 15:0 30 15] [102] 1 0
r 5.041153667 _15_ AGT  --- 1 103 cbr 230 [5 f a 0] ------- [10:0 15:0 30 15] [103] 1 0
r 5.095153667 _15_ AGT  --- 1 106 cbr 230 [5 f a 0] ------- [10:0 15:0 30 15] [106] 1 0
r 5.101153667 _15_ AGT  --- 1 107 cbr 230 [5 f a 0] ------- [10:0 15:0 30 15] [107] 1 0
r 5.155153667 _15_ AGT  --- 1 110 cbr 230 [5 f a 0] ------- [10:0 15:0 30 15] [110] 1 0
r 5.161153667 _15_ AGT  --- 1 111 cbr 230 [5 f a 0] ------- [10:0 15:0 30 15] [111] 1 0
r 5.215153667 _15_ AGT  --- 1 114 cbr 230 [5 f a 0] ------- [10:0 15:0 30 15] [114] 1 0
r 5.221153667 _15_ AGT  --- 1 115 cbr 230 [5 f a 0] ------- [10:0 15:0 30 15] [115] 1 0
r 5.275153667 _15_ AGT  --- 1 118 cbr 230 [5 f a 0] ------- [10:0 15:0 30 15] [118] 1 0
r 5.281153667 _15_ AGT  --- 1 119 cbr 230 [5 f a 0] ------- [10:0 15:0 30 15] [119] 1 0
r 5.335153667 _15_ AGT  --- 1 122 cbr 230 [5 f a 0] ------- [10:0 15:0 30 15] [122] 1 0
r 5.341153667 _15_ AGT  --- 1 123 cbr 230 [5 f a 0] ------- [10:0 15:0 30 15] [123] 1 0
r 5.395153667 _15_ AGT  --- 1 126 cbr 230 [5 f a 0] ------- [10:0 15:0 30 15] [126] 1 0
r 5.401153667 _15_ AGT  --- 1 127 cbr 230 [5 f a 0] ------- [10:0 15:0 30 15] [127] 1 0
r 5.455153667 _15_ AGT  --- 1 130 cbr 230 [5 f a 0] ------- [10:0 15:0 30 15] [130] 1 0
r 5.461153667 _15_ AGT  --- 1 131 cbr 230 [5 f a 0] ------- [10:0 15:0 30 15] [131] 1 0
r 5.515153667 _15_ AGT  --- 1 134 cbr 230 [5 f a 0] ------- [10:0 15:0 30 15] [134] 1 0
r 5.521153667 _15_ AGT  --- 1 138 cbr 230 [5 f a 0] ------- [10:0 15:0 30 15] [138] 1 0
r 5.575153667 _15_ AGT  --- 1 139 cbr 230 [5 f a 0] ------- [10:0 15:0 30 15] [139] 1 0
r 5.581153667 _15_ AGT  --- 1 142 cbr 230 [5 f a 0] ------- [10:0 15:0 30 15] [142] 1 0
r 5.635153667 _15_ AGT  --- 1 143 cbr 230 [5 f a 0] ------- [10:0 15:0 30 15] [143] 1 0
r 5.641153667 _15_ AGT  --- 1 146 cbr 230 [5 f a 0] ------- [10:0 15:0 30 15] [146] 1 0
r 5.695153667 _15_ AGT  --- 1 147 cbr 230 [5 f a 0] ------- [10:0 15:0 30 15] [147] 1 0
r 5.701153667 _15_ AGT  --- 1 150 cbr 230 [5 f a 0] ------- [10:0 15:0 30 15] [150] 1 0