s 32.185638571 _4_ AGT  --- 2 0 cbr 210 [0 0 0 0] ------- [4:1 3:0 32 0] [0] 0 0
s 32.196838571 _4_ AGT  --- 2 1 cbr 210 [0 0 0 0] ------- [4:1 3:0 32 0] [1] 0 0
s 32.208038571 _4_ AGT  --- 2 2 cbr 210 [0 0 0 0] ------- [4:1 3:0 32 0] [2] 0 0
s 32.219238571 _4_ AGT  --- 2 3 cbr 210 [0 0 0 0] ------- [4:1 3:0 32 0] [3] 0 0
s 32.230438571 _4_ AGT  --- 2 4 cbr 210 [0 0 0 0] ------- [4:1 3:0 32 0] [4] 0 0
s 32.241638571 _4_ AGT  --- 2 5 cbr 210 [0 0 0 0] ------- [4:1 3:0 32 0] [5] 0 0
s 32.252838571 _4_ AGT  --- 2 6 cbr 210 [0 0 0 0] ------- [4:1 3:0 32 0] [6] 0 0
s 32.264038571 _4_ AGT  --- 2 7 cbr 210 [0 0 0 0] ------- [4:1 3:0 32 0] [7] 0 0
s 32.275238571 _4_ AGT  --- 2 8 cbr 210 [0 0 0 0] ------- [4:1 3:0 32 0] [8] 0 0
s 32.286438571 _4_ AGT  --- 2 9 cbr 210 [0 0 0 0] ------- [4:1 3:0 32 0] [9] 0 0
s 32.297638571 _4_ AGT  --- 2 10 cbr 210 [0 0 0 0] ------- [4:1 3:0 32 0] [10] 0 0
s 32.308838571 _4_ AGT  --- 2 11 cbr 210 [0 0 0 0] ------- [4:1 3:0 32 0] [11] 0 0
s 32.320038571 _4_ AGT  --- 2 12 cbr 210 [0 0 0 0] ------- [4:1 3:0 32 0] [12] 0 0
s 32.331238571 _4_ AGT  --- 2 13 cbr 210 [0 0 0 0] ------- [4:1 3:0 32 0] [13] 0 0
s 32.342438571 _4_ AGT  --- 2 14 cbr 210 [0 0 0 0] ------- [4:1 3:0 32 0] [14] 0 0
s 32.353638571 _4_ AGT  --- 2 15 cbr 210 [0 0 0 0] ------- [4:1 3:0 32 0] [15] 0 0
s 32.364838571 _4_ AGT  --- 2 16 cbr 210 [0 0 0 0] ------- [4:1 3:0 32 0] [16] 0 0
s 32.376038571 _4_ AGT  --- 2 17 cbr 210 [0 0 0 0] ------- [4:1 3:0 32 0] [17] 0 0
s 32.387238571 _4_ AGT  --- 2 18 cbr 210 [0 0 0 0] ------- [4:1 3:0 32 0] [18] 0 0
s 32.398438571 _4_ AGT  --- 2 19 cbr 210 [0 0 0 0] ------- [4:1 3:0 32 0] [19] 0 0
s 32.409638571 _4_ AGT  --- 2 20 cbr 210 [0 0 0 0] ------- [4:1 3:0 32 0] [20] 0 0
s 32.420838571 _4_ AGT  --- 2 21 cbr 210 [0 0 0 0] ------- [4:1 3:0 32 0] [21] 0 0
s 32.432038571 _4_ AGT  --- 2 22 cbr 210 [0 0 0 0] ------- [4:1 3:0 32 0] [22] 0 0
s 32.443238571 _4_ AGT  --- 2 23 cbr 210 [0 0 0 0] ------- [4:1 3:0 32 0] [23] 0 0
s 32.454438571 _4_ AGT  --- 2 24 cbr 210 [0 0 0 0] ------- [4:1 3:0 32 0] [24] 0 0
s 32.465638571 _4_ AGT  --- 2 25 cbr 210 [0 0 0 0] ------- [4:1 3:0 32 0] [25] 0 0
s 32.476838571 _4_ AGT  --- 2 26 cbr 210 [0 0 0 0] ------- [4:1 3:0 32 0] [26] 0 0
s 32.488038571 _4_ AGT  --- 2 27 cbr 210 [0 0 0 0] ------- [4:1 3:0 32 0] [27] 0 0
s 32.499238571 _4_ AGT  --- 2 28 cbr 210 [0 0 0 0] ------- [4:1 3:0 32 0] [28] 0 0
s 32.510438571 _4_ AGT  --- 2 29 cbr 210 [0 0 0 0] ------- [4:1 3:0 32 0] [29] 0 0
s 32.521638571 _4_ AGT  --- 2 30 cbr 210 [0 0 0 0] ------- [4:1 3:0 32 0] [30] 0 0
s 32.532838571 _4_ AGT  --- 2 31 cbr 210 [0 0 0 0] ------- [4:1 3:0 32 0] [31] 0 0
s 32.544038571 _4_ AGT  --- 2 32 cbr 210 [0 0 0 0] ------- [4:1 3:0 32 0] [32] 0 0
s 32.555238571 _4_ AGT  --- 2 33 cbr 210 [0 0 0 0] ------- [4:1 3:0 32 0] [33] 0 0
s 32.566438571 _4_ AGT  --- 2 34 cbr 210 [0 0 0 0] ------- [4:1 3:0 32 0] [34] 0 0
r 32.575153667 _3_ AGT  --- 2 0 cbr 230 [5 3 4 0] ------- [4:1 3:0 30 3] [0] 1 0
s 32.577638571 _4_ AGT  --- 2 35 cbr 210 [0 0 0 0] ------- [4:1 3:0 32 0] [35] 0 0
r 32.581153667 _3_ AGT  --- 2 1 cbr 230 [5 3 4 0] ------- [4:1 3:0 30 3] [1] 1 0
s 32.588838571 _4_ AGT  --- 2 36 cbr 210 [0 0 0 0] ------- [4:1 3:0 32 0] [36] 0 0
s 32.600038571 _4_ AGT  --- 2 37 cbr 210 [0 0 0 0] ------- [4:1 3:0 32 0] [37] 0 0
s 32.611238571 _4_ AGT  --- 2 38 cbr 210 [0 0 0 0] ------- [4:1 3:0 32 0] [38] 0 0
s 32.622438571 _4_ AGT  --- 2 39 cbr 210 [0 0 0 0] ------- [4:1 3:0 32 0] [39] 0 0
s 32.633638571 _4_ AGT  --- 2 40 cbr 210 [0 0 0 0] ------- [4:1 3:0 32 0] [40] 0 0
r 32.635153667 _3_ AGT  --- 2 32 cbr 230 [5 3 4 0] ------- [4:1 3:0 30 3] [32] 1 0
r 32.641153667 _3_ AGT  --- 2 2 cbr 230 [5 3 4 0] ------- [4:1 3:0 30 3] [2] 1 0
s 32.644838571 _4_ AGT  --- 2 41 cbr 210 [0 0 0 0] ------- [4:1 3:0 32 0] [41] 0 0
s 32.656038571 _4_ AGT  --- 2 42 cbr 210 [0 0 0 0] ------- [4:1 3:0 32 0] [42] 0 0
s 32.667238571 _4_ AGT  --- 2 43 cbr 210 [0 0 0 0] ------- [4:1 3:0 32 0] [43] 0 0
s 32.678438571 _4_ AGT  --- 2 44 cbr 210 [0 0 0 0] ------- [4:1 3:0 32 0] [44] 0 0
s 32.689638571 _4_ AGT  --- 2 45 cbr 210 [0 0 0 0] ------- [4:1 3:0 32 0] [45] 0 0
r 32.695153667 _3_ AGT  --- 2 33 cbr 230 [5 3 4 0] ------- [4:1 3:0 30 3] [33] 1 0
s 32.700838571 _4_ AGT  --- 2 46 cbr 210 [0 0 0 0] ------- [4:1 3:0 32 0] [46] 0 0
r 32.701153667 _3_ AGT  --- 2 3 cbr 230 [5 3 4 0] ------- [4:1 3:0 30 3] [3] 1 0
s 32.712038571 _4_ AGT  --- 2 47 cbr 210 [0 0 0 0] ------- [4:1 3:0 32 0] [47] 0 0
s 32.723238571 _4_ AGT  --- 2 48 cbr 210 [0 0 0 0] ------- [4:1 3:0 32 0] [48] 0 0
s 32.734438571 _4_ AGT  --- 2 49 cbr 210 [0 0 0 0] ------- [4:1 3:0 32 0] [49] 0 0
s 32.745638571 _4_ AGT  --- 2 50 cbr 210 [0 0 0 0] ------- [4:1 3:0 32 0] [50] 0 0
r 32.755153667 _3_ AGT  --- 2 34 cbr 230 [5 3 4 0] ------- [4:1 3:0 30 3] [34] 1 0
s 32.756838571 _4_ AGT  --- 2 51 cbr 210 [0 0 0 0] ------- [4:1 3:0 32 0] [51] 0 0
r 32.761153667 _3_ AGT  --- 2 4 cbr 230 [5 3 4 0] ------- [4:1 3:0 30 3] [4] 1 0
s 32.768038571 _4_ AGT  --- 2 52 cbr 210 [0 0 0 0] ------- [4:1 3:0 32 0] [52] 0 0
s 32.779238571 _4_ AGT  --- 2 53 cbr 210 [0 0 0 0] ------- [4:1 3:0 32 0] [53] 0 0
s 32.790438571 _4_ AGT  --- 2 54 cbr 210 [0 0 0 0] ------- [4:1 3:0 32 0] [54] 0 0
s 32.801638571 _4_ AGT  --- 2 55 cbr 210 [0 0 0 0] ------- [4:1 3:0 32 0] [55] 0 0
s 32.812838571 _4_ AGT  --- 2 56 cbr 210 [0 0 0 0] ------- [4:1 3:0 32 0] [56] 0 0
r 32.815153667 _3_ AGT  --- 2 35 cbr 230 [5 3 4 0] ------- [4:1 3:0 30 3] [35] 1 0
r 32.821153667 _3_ AGT  --- 2 5 cbr 230 [5 3 4 0] ------- [4:1 3:0 30 3] [5] 1 0
s 32.824038571 _4_ AGT  --- 2 57 cbr 210 [0 0 0 0] ------- [4:1 3:0 32 0] [57] 0 0
s 32.835238571 _4_ AGT  --- 2 58 cbr 210 [0 0 0 0] ------- [4:1 3:0 32 0] [58] 0 0
s 32.846438571 _4_ AGT  --- 2 59 cbr 210 [0 0 0 0] ------- [4:1 3:0 32 0] [59] 0 0
s 32.857638571 _4_ AGT  --- 2 60 cbr 210 [0 0 0 0] ------- [4:1 3:0 32 0] [60] 0 0
s 32.868838571 _4_ AGT  --- 2 61 cbr 210 [0 0 0 0] ------- [4:1 3:0 32 0] [61] 0 0
r 32.875153667 _3_ AGT  --- 2 36 cbr 230 [5 3 4 0] ------- [4:1 3:0 30 3] [36] 1 0
s 32.880038571 _4_ AGT  --- 2 62 cbr 210 [0 0 0 0] ------- [4:1 3:0 32 0] [62] 0 0
r 32.881153667 _3_ AGT  --- 2 6 cbr 230 [5 3 4 0] ------- [4:1 3:0 30 3] [6] 1 0
s 32.891238571 _4_ AGT  --- 2 63 cbr 210 [0 0 0 0] ------- [4:1 3:0 32 0] [63] 0 0
s 32.902438571 _4_ AGT  --- 2 64 cbr 210 [0 0 0 0] ------- [4:1 3:0 32 0] [64] 0 0
s 32.913638571 _4_ AGT  --- 2 65 cbr 210 [0 0 0 0] ------- [4:1 3:0 32 0] [65] 0 0
s 32.924838571 _4_ AGT  --- 2 66 cbr 210 [0 0 0 0] ------- [4:1 3:0 32 0] [66] 0 0
r 32.935153667 _3_ AGT  --- 2 37 cbr 230 [5 3 4 0] ------- [4:1 3:0 30 3] [37] 1 0
s 32.936038571 _4_ AGT  --- 2 67 cbr 210 [0 0 0 0] ------- [4:1 3:0 32 0] [67] 0 0
r 32.941153667 _3_ AGT  --- 2 7 cbr 230 [5 3 4 0] ------- [4:1 3:0 30 3] [7] 1 0
s 32.947238571 _4_ AGT  --- 2 68 cbr 210 [0 0 0 0] ------- [4:1 3:0 32 0] [68] 0 0
s 32.958438571 _4_ AGT  --- 2 69 cbr 210 [0 0 0 0] ------- [4:1 3:0 32 0] [69] 0 0
s 32.969638571 _4_ AGT  --- 2 70 cbr 210 [0 0 0 0] ------- [4:1 3:0 32 0] [70] 0 0
s 32.980838571 _4_ AGT  --- 2 71 cbr 210 [0 0 0 0] ------- [4:1 3:0 32 0] [71] 0 0
s 32.992038571 _4_ AGT  --- 2 72 cbr 210 [0 0 0 0] ------- [4:1 3:0 32 0] [72] 0 0
r 32.995153667 _3_ AGT  --- 2 38 cbr 230 [5 3 4 0] ------- [4:1 3:0 30 3] [38] 1 0
r 33.001153667 _3_ AGT  --- 2 8 cbr 230 [5 3 4 0] ------- [4:1 3:0 30 3] [8] 1 0
s 33.003238571 _4_ AGT  --- 2 73 cbr 210 [0 0 0 0] ------- [4:1 3:0 32 0] [73] 0 0
s 33.014438571 _4_ AGT  --- 2 74 cbr 210 [0 0 0 0] ------- [4:1 3:0 32 0] [74] 0 0
s 33.025638571 _4_ AGT  --- 2 75 cbr 210 [0 0 0 0] ------- [4:1 3:0 32 0] [75] 0 0
s 33.036838571 _4_ AGT  --- 2 76 cbr 210 [0 0 0 0] ------- [4:1 3:0 32 0] [76] 0 0
s 33.048038571 _4_ AGT  --- 2 77 cbr 210 [0 0 0 0] ------- [4:1 3:0 32 0] [77] 0 0
r 33.055153667 _3_ AGT  --- 2 39 cbr 230 [5 3 4 0] ------- [4:1 3:0 30 3] [39] 1 0
s 33.059238571 _4_ AGT  --- 2 78 cbr 210 [0 0 0 0] ------- [4:1 3:0 32 0] [78] 0 0
r 33.061153667 _3_ AGT  --- 2 9 cbr 230 [5 3 4 0] ------- [4:1 3:0 30 3] [9] 1 0
s 33.070438571 _4_ AGT  --- 2 79 cbr 210 [0 0 0 0] ------- [4:1 3:0 32 0] [79] 0 0
s 33.081638571 _4_ AGT  --- 2 80 cbr 210 [0 0 0 0] ------- [4:1 3:0 32 0] [80] 0 0
s 33.092838571 _4_ AGT  --- 2 81 cbr 210 [0 0 0 0] ------- [4:1 3:0 32 0] [81] 0 0
s 33.104038571 _4_ AGT  --- 2 82 cbr 210 [0 0 0 0] ------- [4:1 3:0 32 0] [82] 0 0
r 33.115153667 _3_ AGT  --- 2 10 cbr 230 [5 3 4 0] ------- [4:1 3:0 30 3] [10] 1 0
s 33.115238571 _4_ AGT  --- 2 83 cbr 210 [0 0 0 0] ------- [4:1 3:0 32 0] [83] 0 0
r 33.121153667 _3_ AGT  --- 2 40 cbr 230 [5 3 4 0] ------- [4:1 3:0 30 3] [40] 1 0
s 33.126438571 _4_ AGT  --- 2 84 cbr 210 [0 0 0 0] ------- [4:1 3:0 32 0] [84] 0 0
s 33.137638571 _4_ AGT  --- 2 85 cbr 210 [0 0 0 0] ------- [4:1 3:0 32 0] [85] 0 0
s 33.148838571 _4_ AGT  --- 2 86 cbr 210 [0 0 0 0] ------- [4:1 3:0 32 0] [86] 0 0
s 33.160038571 _4_ AGT  --- 2 87 cbr 210 [0 0 0 0] ------- [4:1 3:0 32 0] [87] 0 0
s 33.171238571 _4_ AGT  --- 2 88 cbr 210 [0 0 0 0] ------- [4:1 3:0 32 0] [88] 0 0
r 33.175153667 _3_ AGT  --- 2 11 cbr 230 [5 3 4 0] ------- [4:1 3:0 30 3] [11] 1 0
r 33.181153667 _3_ AGT  --- 2 41 cbr 230 [5 3 4 0] ------- [4:1 3:0 30 3] [41] 1 0
s 33.182438571 _4_ AGT  --- 2 89 cbr 210 [0 0 0 0] ------- [4:1 3:0 32 0] [89] 0 0
s 33.193638571 _4_ AGT  --- 2 90 cbr 210 [0 0 0 0] ------- [4:1 3:0 32 0] [90] 0 0
s 33.204838571 _4_ AGT  --- 2 91 cbr 210 [0 0 0 0] ------- [4:1 3:0 32 0] [91] 0 0
s 33.216038571 _4_ AGT  --- 2 92 cbr 210 [0 0 0 0] ------- [4:1 3:0 32 0] [92] 0 0
s 33.227238571 _4_ AGT  --- 2 93 cbr 210 [0 0 0 0] ------- [4:1 3:0 32 0] [93] 0 0
r 33.235153667 _3_ AGT  --- 2 12 cbr 230 [5 3 4 0] ------- [4:1 3:0 30 3] [12] 1 0
s 33.238438571 _4_ AGT  --- 2 94 cbr 210 [0 0 0 0] ------- [4:1 3:0 32 0] [94] 0 0
r 33.241153667 _3_ AGT  --- 2 42 cbr 230 [5 3 4 0] ------- [4:1 3:0 30 3] [42] 1 0
s 33.249638571 _4_ AGT  --- 2 95 cbr 210 [0 0 0 0] ------- [4:1 3:0 32 0] [95] 0 0
s 33.260838571 _4_ AGT  --- 2 96 cbr 210 [0 0 0 0] ------- [4:1 3:0 32 0] [96] 0 0
s 33.272038571 _4_ AGT  --- 2 97 cbr 210 [0 0 0 0] ------- [4:1 3:0 32 0] [97] 0 0
s 33.283238571 _4_ AGT  --- 2 98 cbr 210 [0 0 0 0] ------- [4:1 3:0 32 0] [98] 0 0
s 33.294438571 _4_ AGT  --- 2 99 cbr 210 [0 0 0 0] ------- [4:1 3:0 32 0] [99] 0 0
r 33.295153667 _3_ AGT  --- 2 13 cbr 230 [5 3 4 0] ------- [4:1 3:0 30 3] [13] 1 0
r 33.301153667 _3_ AGT  --- 2 43 cbr 230 [5 3 4 0] ------- [4:1 3:0 30 3] [43] 1 0
s 33.305638571 _4_ AGT  --- 2 100 cbr 210 [0 0 0 0] ------- [4:1 3:0 32 0] [100] 0 0
s 33.316838571 _4_ AGT  --- 2 101 cbr 210 [0 0 0 0] ------- [4:1 3:0 32 0] [101] 0 0
s 33.328038571 _4_ AGT  --- 2 102 cbr 210 [0 0 0 0] ------- [4:1 3:0 32 0] [102] 0 0
s 33.339238571 _4_ AGT  --- 2 103 cbr 210 [0 0 0 0] ------- [4:1 3:0 32 0] [103] 0 0
s 33.350438571 _4_ AGT  --- 2 104 cbr 210 [0 0 0 0] ------- [4:1 3:0 32 0] [104] 0 0
r 33.355153667 _3_ AGT  --- 2 14 cbr 230 [5 3 4 0] ------- [4:1 3:0 30 3] [14] 1 0
r 33.361153667 _3_ AGT  --- 2 44 cbr 230 [5 3 4 0] ------- [4:1 3:0 30 3] [44] 1 0
s 33.361638571 _4_ AGT  --- 2 105 cbr 210 [0 0 0 0] ------- [4:1 3:0 32 0] [105] 0 0
s 33.372838571 _4_ AGT  --- 2 106 cbr 210 [0 0 0 0] ------- [4:1 3:0 32 0] [106] 0 0
s 33.384038571 _4_ AGT  --- 2 107 cbr 210 [0 0 0 0] ------- [4:1 3:0 32 0] [107] 0 0
s 33.395238571 _4_ AGT  --- 2 108 cbr 210 [0 0 0 0] ------- [4:1 3:0 32 0] [108] 0 0
s 33.406438571 _4_ AGT  --- 2 109 cbr 210 [0 0 0 0] ------- [4:1 3:0 32 0] [109] 0 0
r 33.415153667 _3_ AGT  --- 2 15 cbr 230 [5 3 4 0] ------- [4:1 3:0 30 3] [15] 1 0
s 33.417638571 _4_ AGT  --- 2 110 cbr 210 [0 0 0 0] ------- [4:1 3:0 32 0] [110] 0 0
r 33.421153667 _3_ AGT  --- 2 45 cbr 230 [5 3 4 0] ------- [4:1 3:0 30 3] [45] 1 0
s 33.428838571 _4_ AGT  --- 2 111 cbr 210 [0 0 0 0] ------- [4:1 3:0 32 0] [111] 0 0
s 33.440038571 _4_ AGT  --- 2 112 cbr 210 [0 0 0 0] ------- [4:1 3:0 32 0] [112] 0 0
s 33.451238571 _4_ AGT  --- 2 113 cbr 210 [0 0 0 0] ------- [4:1 3:0 32 0] [113] 0 0
s 33.462438571 _4_ AGT  --- 2 114 cbr 210 [0 0 0 0] ------- [4:1 3:0 32 0] [114] 0 0
s 33.473638571 _4_ AGT  --- 2 115 cbr 210 [0 0 0 0] ------- [4:1 3:0 32 0] [115] 0 0
r 33.475153667 _3_ AGT  --- 2 16 cbr 230 [5 3 4 0] ------- [4:1 3:0 30 3] [16] 1 0
s 33.484838571 _4_ AGT  --- 2 116 cbr 210 [0 0 0 0] ------- [4:1 3:0 32 0] [116] 0 0
s 33.496038571 _4_ AGT  --- 2 117 cbr 210 [0 0 0 0] ------- [4:1 3:0 32 0] [117] 0 0
s 33.507238571 _4_ AGT  --- 2 118 cbr 210 [0 0 0 0] ------- [4:1 3:0 32 0] [118] 0 0
s 33.518438571 _4_ AGT  --- 2 119 cbr 210 [0 0 0 0] ------- [4:1 3:0 32 0] [119] 0 0
s 33.529638571 _4_ AGT  --- 2 120 cbr 210 [0 0 0 0] ------- [4:1 3:0 32 0] [120] 0 0
r 33.535153667 _3_ AGT  --- 2 46 cbr 230 [5 3 4 0] ------- [4:1 3:0 30 3] [46] 1 0
s 33.540838571 _4_ AGT  --- 2 121 cbr 210 [0 0 0 0] ------- [4:1 3:0 32 0] [121] 0 0
r 33.541153667 _3_ AGT  --- 2 17 cbr 230 [5 3 4 0] ------- [4:1 3:0 30 3] [17] 1 0
s 33.552038571 _4_ AGT  --- 2 122 cbr 210 [0 0 0 0] ------- [4:1 3:0 32 0] [122] 0 0
s 33.563238571 _4_ AGT  --- 2 123 cbr 210 [0 0 0 0] ------- [4:1 3:0 32 0] [123] 0 0
s 33.574438571 _4_ AGT  --- 2 124 cbr 210 [0 0 0 0] ------- [4:1 3:0 32 0] [124] 0 0
s 33.585638571 _4_ AGT  --- 2 125 cbr 210 [0 0 0 0] ------- [4:1 3:0 32 0] [125] 0 0
r 33.595153667 _3_ AGT  --- 2 47 cbr 230 [5 3 4 0] ------- [4:1 3:0 30 3] [47] 1 0
s 33.596838571 _4_ AGT  --- 2 126 cbr 210 [0 0 0 0] ------- [4:1 3:0 32 0] [126] 0 0
r 33.601153667 _3_ AGT  --- 2 18 cbr 230 [5 3 4 0] ------- [4:1 3:0 30 3] [18] 1 0
s 33.608038571 _4_ AGT  --- 2 127 cbr 210 [0 0 0 0] ------- [4:1 3:0 32 0] [127] 0 0
s 33.619238571 _4_ AGT  --- 2 128 cbr 210 [0 0 0 0] ------- [4:1 3:0 32 0] [128] 0 0
s 33.630438571 _4_ AGT  --- 2 129 cbr 210 [0 0 0 0] ------- [4:1 3:0 32 0] [129] 0 0
s 33.641638571 _4_ AGT  --- 2 130 cbr 210 [0 0 0 0] ------- [4:1 3:0 32 0] [130] 0 0
s 33.652838571 _4_ AGT  --- 2 131 cbr 210 [0 0 0 0] ------- [4:1 3:0 32 0] [131] 0 0
r 33.655153667 _3_ AGT  --- 2 48 cbr 230 [5 3 4 0] ------- [4:1 3:0 30 3] [48] 1 0
r 33.661153667 _3_ AGT  --- 2 19 cbr 230 [5 3 4 0] ------- [4:1 3:0 30 3] [19] 1 0
s 33.664038571 _4_ AGT  --- 2 132 cbr 210 [0 0 0 0] ------- [4:1 3:0 32 0] [132] 0 0
s 33.675238571 _4_ AGT  --- 2 133 cbr 210 [0 0 0 0] ------- [4:1 3:0 32 0] [133] 0 0
s 33.686438571 _4_ AGT  --- 2 134 cbr 210 [0 0 0 0] ------- [4:1 3:0 32 0] [134] 0 0
s 33.697638571 _4_ AGT  --- 2 135 cbr 210 [0 0 0 0] ------- [4:1 3:0 32 0] [135] 0 0
s 33.708838571 _4_ AGT  --- 2 136 cbr 210 [0 0 0 0] ------- [4:1 3:0 32 0] [136] 0 0
r 33.715153667 _3_ AGT  --- 2 20 cbr 230 [5 3 4 0] ------- [4:1 3:0 30 3] [20] 1 0
s 33.720038571 _4_ AGT  --- 2 137 cbr 210 [0 0 0 0] ------- [4:1 3:0 32 0] [137] 0 0
r 33.721153667 _3_ AGT  --- 2 49 cbr 230 [5 3 4 0] ------- [4:1 3:0 30 3] [49] 1 0
s 33.731238571 _4_ AGT  --- 2 138 cbr 210 [0 0 0 0] ------- [4:1 3:0 32 0] [138] 0 0
s 33.742438571 _4_ AGT  --- 2 139 cbr 210 [0 0 0 0] ------- [4:1 3:0 32 0] [139] 0 0
D 33.742463571 _4_ IFQ  --- 2 139 cbr 230 [0 3 4 0] ------- [4:1 3:0 30 3] [139] 0 0
s 33.753638571 _4_ AGT  --- 2 140 cbr 210 [0 0 0 0] ------- [4:1 3:0 32 0] [140] 0 0
D 33.753663571 _4_ IFQ  --- 2 140 cbr 230 [0 3 4 0] ------- [4:1 3:0 30 3] [140] 0 0
s 33.764838571 _4_ AGT  --- 2 141 cbr 210 [0 0 0 0] ------- [4:1 3:0 32 0] [141] 0 0
D 33.764863571 _4_ IFQ  --- 2 141 cbr 230 [0 3 4 0] ------- [4:1 3:0 30 3] [141] 0 0
r 33.775153667 _3_ AGT  --- 2 21 cbr 230 [5 3 4 0] ------- [4:1 3:0 30 3] [21] 1 0
s 33.776038571 _4_ AGT  --- 2 142 cbr 210 [0 0 0 0] ------- [4:1 3:0 32 0] [142] 0 0
r 33.781153667 _3_ AGT  --- 2 50 cbr 230 [5 3 4 0] ------- [4:1 3:0 30 3] [50] 1 0
s 33.787238571 _4_ AGT  --- 2 143 cbr 210 [0 0 0 0] ------- [4:1 3:0 32 0] [143] 0 0
s 33.798438571 _4_ AGT  --- 2 144 cbr 210 [0 0 0 0] ------- [4:1 3:0 32 0] [144] 0 0
D 33.798463571 _4_ IFQ  --- 2 144 cbr 230 [0 3 4 0] ------- [4:1 3:0 30 3] [144] 0 0
s 33.809638571 _4_ AGT  --- 2 145 cbr 210 [0 0 0 0] ------- [4:1 3:0 32 0] [145] 0 0
D 33.809663571 _4_ IFQ  --- 2 145 cbr 230 [0 3 4 0] ------- [4:1 3:0 30 3] [145] 0 0
s 33.820838571 _4_ AGT  --- 2 146 cbr 210 [0 0 0 0] ------- [4:1 3:0 32 0] [146] 0 0
D 33.820863571 _4_ IFQ  --- 2 146 cbr 230 [0 3 4 0] ------- [4:1 3:0 30 3] [146] 0 0
s 33.832038571 _4_ AGT  --- 2 147 cbr 210 [0 0 0 0] ------- [4:1 3:0 32 0] [147] 0 0
D 33.832063571 _4_ IFQ  --- 2 147 cbr 230 [0 3 4 0] ------- [4:1 3:0 30 3] [147] 0 0
r 33.835153667 _3_ AGT  --- 2 22 cbr 230 [5 3 4 0] ------- [4:1 3:0 30 3] [22] 1 0
r 33.841153667 _3_ AGT  --- 2 51 cbr 230 [5 3 4 0] ------- [4:1 3:0 30 3] [51] 1 0
s 33.843238571 _4_ AGT  --- 2 148 cbr 210 [0 0 0 0] ------- [4:1 3:0 32 0] [148] 0 0
s 33.854438571 _4_ AGT  --- 2 149 cbr 210 [0 0 0 0] ------- [4:1 3:0 32 0] [149] 0 0
s 33.865638571 _4_ AGT  --- 2 150 cbr 210 [0 0 0 0] ------- [4:1 3:0 32 0] [150] 0 0
D 33.865663571 _4_ IFQ  --- 2 150 cbr 230 [0 3 4 0] ------- [4:1 3:0 30 3] [150] 0 0
s 33.876838571 _4_ AGT  --- 2 151 cbr 210 [0 0 0 0] ------- [4:1 3:0 32 0] [151] 0 0
D 33.876863571 _4_ IFQ  --- 2 151 cbr 230 [0 3 4 0] ------- [4:1 3:0 30 3] [151] 0 0
s 33.888038571 _4_ AGT  --- 2 152 cbr 210 [0 0 0 0] ------- [4:1 3:0 32 0] [152] 0 0
D 33.888063571 _4_ IFQ  --- 2 152 cbr 230 [0 3 4 0] ------- [4:1 3:0 30 3] [152] 0 0
r 33.895153667 _3_ AGT  --- 2 23 cbr 230 [5 3 4 0] ------- [4:1 3:0 30 3] [23] 1 0
s 33.899238571 _4_ AGT  --- 2 153 cbr 210 [0 0 0 0] ------- [4:1 3:0 32 0] [153] 0 0
r 33.901153667 _3_ AGT  --- 2 52 cbr 230 [5 3 4 0] ------- [4:1 3:0 30 3] [52] 1 0
s 33.910438571 _4_ AGT  --- 2 154 cbr 210 [0 0 0 0] ------- [4:1 3:0 32 0] [154] 0 0
s 33.921638571 _4_ AGT  --- 2 155 cbr 210 [0 0 0 0] ------- [4:1 3:0 32 0] [155] 0 0
D 33.921663571 _4_ IFQ  --- 2 155 cbr 230 [0 3 4 0] ------- [4:1 3:0 30 3] [155] 0 0
s 33.932838571 _4_ AGT  --- 2 156 cbr 210 [0 0 0 0] ------- [4:1 3:0 32 0] [156] 0 0
D 33.932863571 _4_ IFQ  --- 2 156 cbr 230 [0 3 4 0] ------- [4:1 3:0 30 3] [156] 0 0
s 33.944038571 _4_ AGT  --- 2 157 cbr 210 [0 0 0 0] ------- [4:1 3:0 32 0] [157] 0 0
D 33.944063571 _4_ IFQ  --- 2 157 cbr 230 [0 3 4 0] ------- [4:1 3:0 30 3] [157] 0 0
r 33.955153667 _3_ AGT  --- 2 24 cbr 230 [5 3 4 0] ------- [4:1 3:0 30 3] [24] 1 0
s 33.955238571 _4_ AGT  --- 2 158 cbr 210 [0 0 0 0] ------- [4:1 3:0 32 0] [158] 0 0
r 33.961153667 _3_ AGT  --- 2 53 cbr 230 [5 3 4 0] ------- [4:1 3:0 30 3] [53] 1 0
s 33.966438571 _4_ AGT  --- 2 159 cbr 210 [0 0 0 0] ------- [4:1 3:0 32 0] [159] 0 0
s 33.977638571 _4_ AGT  --- 2 160 cbr 210 [0 0 0 0] ------- [4:1 3:0 32 0] [160] 0 0
D 33.977663571 _4_ IFQ  --- 2 160 cbr 230 [0 3 4 0] ------- [4:1 3:0 30 3] [160] 0 0
s 33.988838571 _4_ AGT  --- 2 161 cbr 210 [0 0 0 0] ------- [4:1 3:0 32 0] [161] 0 0
D 33.988863571 _4_ IFQ  --- 2 161 cbr 230 [0 3 4 0] ------- [4:1 3:0 30 3] [161] 0 0
s 34.000038571 _4_ AGT  --- 2 162 cbr 210 [0 0 0 0] ------- [4:1 3:0 32 0] [162] 0 0
D 34.000063571 _4_ IFQ  --- 2 162 cbr 230 [0 3 4 0] ------- [4:1 3:0 30 3] [162] 0 0
s 34.011238571 _4_ AGT  --- 2 163 cbr 210 [0 0 0 0] ------- [4:1 3:0 32 0] [163] 0 0
D 34.011263571 _4_ IFQ  --- 2 163 cbr 230 [0 3 4 0] ------- [4:1 3:0 30 3] [163] 0 0
r 34.015153667 _3_ AGT  --- 2 25 cbr 230 [5 3 4 0] ------- [4:1 3:0 30 3] [25] 1 0
r 34.021153667 _3_ AGT  --- 2 54 cbr 230 [5 3 4 0] ------- [4:1 3:0 30 3] [54] 1 0
s 34.022438571 _4_ AGT  --- 2 164 cbr 210 [0 0 0 0] ------- [4:1 3:0 32 0] [164] 0 0
s 34.033638571 _4_ AGT  --- 2 165 cbr 210 [0 0 0 0] ------- [4:1 3:0 32 0] [165] 0 0
s 34.044838571 _4_ AGT  --- 2 166 cbr 210 [0 0 0 0] ------- [4:1 3:0 32 0] [166] 0 0
D 34.044863571 _4_ IFQ  --- 2 166 cbr 230 [0 3 4 0] ------- [4:1 3:0 30 3] [166] 0 0
s 34.056038571 _4_ AGT  --- 2 167 cbr 210 [0 0 0 0] ------- [4:1 3:0 32 0] [167] 0 0
D 34.056063571 _4_ IFQ  --- 2 167 cbr 230 [0 3 4 0] ------- [4:1 3:0 30 3] [167] 0 0
s 34.067238571 _4_ AGT  --- 2 168 cbr 210 [0 0 0 0] ------- [4:1 3:0 32 0] [168] 0 0
D 34.067263571 _4_ IFQ  --- 2 168 cbr 230 [0 3 4 0] ------- [4:1 3:0 30 3] [168] 0 0
r 34.075153667 _3_ AGT  --- 2 26 cbr 230 [5 3 4 0] ------- [4:1 3:0 30 3] [26] 1 0
s 34.078438571 _4_ AGT  --- 2 169 cbr 210 [0 0 0 0] ------- [4:1 3:0 32 0] [169] 0 0
r 34.081153667 _3_ AGT  --- 2 55 cbr 230 [5 3 4 0] ------- [4:1 3:0 30 3] [55] 1 0
s 34.089638571 _4_ AGT  --- 2 170 cbr 210 [0 0 0 0] ------- [4:1 3:0 32 0] [170] 0 0
s 34.100838571 _4_ AGT  --- 2 171 cbr 210 [0 0 0 0] ------- [4:1 3:0 32 0] [171] 0 0
D 34.100863571 _4_ IFQ  --- 2 171 cbr 230 [0 3 4 0] ------- [4:1 3:0 30 3] [171] 0 0
s 34.112038571 _4_ AGT  --- 2 172 cbr 210 [0 0 0 0] ------- [4:1 3:0 32 0] [172] 0 0
D 34.112063571 _4_ IFQ  --- 2 172 cbr 230 [0 3 4 0] ------- [4:1 3:0 30 3] [172] 0 0
s 34.123238571 _4_ AGT  --- 2 173 cbr 210 [0 0 0 0] ------- [4:1 3:0 32 0] [173] 0 0
D 34.123263571 _4_ IFQ  --- 2 173 cbr 230 [0 3 4 0] ------- [4:1 3:0 30 3] [173] 0 0
s 34.134438571 _4_ AGT  --- 2 174 cbr 210 [0 0 0 0] ------- [4:1 3:0 32 0] [174] 0 0
D 34.134463571 _4_ IFQ  --- 2 174 cbr 230 [0 3 4 0] ------- [4:1 3:0 30 3] [174] 0 0
r 34.135153667 _3_ AGT  --- 2 27 cbr 230 [5 3 4 0] ------- [4:1 3:0 30 3] [27] 1 0
r 34.141153667 _3_ AGT  --- 2 56 cbr 230 [5 3 4 0] ------- [4:1 3:0 30 3] [56] 1 0
s 34.145638571 _4_ AGT  --- 2 175 cbr 210 [0 0 0 0] ------- [4:1 3:0 32 0] [175] 0 0
s 34.156838571 _4_ AGT  --- 2 176 cbr 210 [0 0 0 0] ------- [4:1 3:0 32 0] [176] 0 0
s 34.168038571 _4_ AGT  --- 2 177 cbr 210 [0 0 0 0] ------- [4:1 3:0 32 0] [177] 0 0
D 34.168063571 _4_ IFQ  --- 2 177 cbr 230 [0 3 4 0] ------- [4:1 3:0 30 3] [177] 0 0
s 34.179238571 _4_ AGT  --- 2 178 cbr 210 [0 0 0 0] ------- [4:1 3:0 32 0] [178] 0 0
D 34.179263571 _4_ IFQ  --- 2 178 cbr 230 [0 3 4 0] ------- [4:1 3:0 30 3] [178] 0 0
s 34.190438571 _4_ AGT  --- 2 179 cbr 210 [0 0 0 0] ------- [4:1 3:0 32 0] [179] 0 0
D 34.190463571 _4_ IFQ  --- 2 179 cbr 230 [0 3 4 0] ------- [4:1 3:0 30 3] [179] 0 0
r 34.195153667 _3_ AGT  --- 2 28 cbr 230 [5 3 4 0] ------- [4:1 3:0 30 3] [28] 1 0
r 34.201153667 _3_ AGT  --- 2 29 cbr 230 [5 3 4 0] ------- [4:1 3:0 30 3] [29] 1 0
s 34.201638571 _4_ AGT  --- 2 180 cbr 210 [0 0 0 0] ------- [4:1 3:0 32 0] [180] 0 0
s 34.212838571 _4_ AGT  --- 2 181 cbr 210 [0 0 0 0] ------- [4:1 3:0 32 0] [181] 0 0
s 34.224038571 _4_ AGT  --- 2 182 cbr 210 [0 0 0 0] ------- [4:1 3:0 32 0] [182] 0 0
D 34.224063571 _4_ IFQ  --- 2 182 cbr 230 [0 3 4 0] ------- [4:1 3:0 30 3] [182] 0 0
s 34.235238571 _4_ AGT  --- 2 183 cbr 210 [0 0 0 0] ------- [4:1 3:0 32 0] [183] 0 0
D 34.235263571 _4_ IFQ  --- 2 183 cbr 230 [0 3 4 0] ------- [4:1 3:0 30 3] [183] 0 0
s 34.246438571 _4_ AGT  --- 2 184 cbr 210 [0 0 0 0] ------- [4:1 3:0 32 0] [184] 0 0
D 34.246463571 _4_ IFQ  --- 2 184 cbr 230 [0 3 4 0] ------- [4:1 3:0 30 3] [184] 0 0
r 34.255153667 _3_ AGT  --- 2 57 cbr 230 [5 3 4 0] ------- [4:1 3:0 30 3] [57] 1 0
s 34.257638571 _4_ AGT  --- 2 185 cbr 210 [0 0 0 0] ------- [4:1 3:0 32 0] [185] 0 0
r 34.261153667 _3_ AGT  --- 2 30 cbr 230 [5 3 4 0] ------- [4:1 3:0 30 3] [30] 1 0
s 34.268838571 _4_ AGT  --- 2 186 cbr 210 [0 0 0 0] ------- [4:1 3:0 32 0] [186] 0 0
s 34.280038571 _4_ AGT  --- 2 187 cbr 210 [0 0 0 0] ------- [4:1 3:0 32 0] [187] 0 0
D 34.280063571 _4_ IFQ  --- 2 187 cbr 230 [0 3 4 0] ------- [4:1 3:0 30 3] [187] 0 0
s 34.291238571 _4_ AGT  --- 2 188 cbr 210 [0 0 0 0] ------- [4:1 3:0 32 0] [188] 0 0
D 34.291263571 _4_ IFQ  --- 2 188 cbr 230 [0 3 4 0] ------- [4:1 3:0 30 3] [188] 0 0
s 34.302438571 _4_ AGT  --- 2 189 cbr 210 [0 0 0 0] ------- [4:1 3:0 32 0] [189] 0 0
D 34.302463571 _4_ IFQ  --- 2 189 cbr 230 [0 3 4 0] ------- [4:1 3:0 30 3] [189] 0 0
s 34.313638571 _4_ AGT  --- 2 190 cbr 210 [0 0 0 0] ------- [4:1 3:0 32 0] [190] 0 0
D 34.313663571 _4_ IFQ  --- 2 190 cbr 230 [0 3 4 0] ------- [4:1 3:0 30 3] [190] 0 0
r 34.315153667 _3_ AGT  --- 2 58 cbr 230 [5 3 4 0] ------- [4:1 3:0 30 3] [58] 1 0
r 34.321153667 _3_ AGT  --- 2 31 cbr 230 [5 3 4 0] ------- [4:1 3:0 30 3] [31] 1 0
s 34.324838571 _4_ AGT  --- 2 191 cbr 210 [0 0 0 0] ------- [4:1 3:0 32 0] [191] 0 0
s 34.336038571 _4_ AGT  --- 2 192 cbr 210 [0 0 0 0] ------- [4:1 3:0 32 0] [192] 0 0
s 34.347238571 _4_ AGT  --- 2 193 cbr 210 [0 0 0 0] ------- [4:1 3:0 32 0] [193] 0 0
D 34.347263571 _4_ IFQ  --- 2 193 cbr 230 [0 3 4 0] ------- [4:1 3:0 30 3] [193] 0 0
s 34.358438571 _4_ AGT  --- 2 194 cbr 210 [0 0 0 0] ------- [4:1 3:0 32 0] [194] 0 0
D 34.358463571 _4_ IFQ  --- 2 194 cbr 230 [0 3 4 0] ------- [4:1 3:0 30 3] [194] 0 0
s 34.369638571 _4_ AGT  --- 2 195 cbr 210 [0 0 0 0] ------- [4:1 3:0 32 0] [195] 0 0
D 34.369663571 _4_ IFQ  --- 2 195 cbr 230 [0 3 4 0] ------- [4:1 3:0 30 3] [195] 0 0
r 34.375153667 _3_ AGT  --- 2 59 cbr 230 [5 3 4 0] ------- [4:1 3:0 30 3] [59] 1 0
s 34.380838571 _4_ AGT  --- 2 196 cbr 210 [0 0 0 0] ------- [4:1 3:0 32 0] [196] 0 0
r 34.381153667 _3_ AGT  --- 2 60 cbr 230 [5 3 4 0] ------- [4:1 3:0 30 3] [60] 1 0
s 34.392038571 _4_ AGT  --- 2 197 cbr 210 [0 0 0 0] ------- [4:1 3:0 32 0] [197] 0 0
s 34.403238571 _4_ AGT  --- 2 198 cbr 210 [0 0 0 0] ------- [4:1 3:0 32 0] [198] 0 0
D 34.403263571 _4_ IFQ  --- 2 198 cbr 230 [0 3 4 0] ------- [4:1 3:0 30 3] [198] 0 0
s 34.414438571 _4_ AGT  --- 2 199 cbr 210 [0 0 0 0] ------- [4:1 3:0 32 0] [199] 0 0
D 34.414463571 _4_ IFQ  --- 2 199 cbr 230 [0 3 4 0] ------- [4:1 3:0 30 3] [199] 0 0
D 34.420544695 _4_ IFQ  --- 2 197 cbr 230 [0 3 4 0] ------- [4:1 3:0 30 3] [197] 0 0
s 34.425638571 _4_ AGT  --- 2 200 cbr 210 [0 0 0 0] ------- [4:1 3:0 32 0] [200] 0 0
D 34.425663571 _4_ IFQ  --- 2 200 cbr 230 [0 3 4 0] ------- [4:1 3:0 30 3] [200] 0 0
r 34.435153667 _3_ AGT  --- 2 61 cbr 230 [5 3 4 0] ------- [4:1 3:0 30 3] [61] 1 0
s 34.436838571 _4_ AGT  --- 2 201 cbr 210 [0 0 0 0] ------- [4:1 3:0 32 0] [201] 0 0
s 34.448038571 _4_ AGT  --- 2 202 cbr 210 [0 0 0 0] ------- [4:1 3:0 32 0] [202] 0 0
s 34.459238571 _4_ AGT  --- 2 203 cbr 210 [0 0 0 0] ------- [4:1 3:0 32 0] [203] 0 0
D 34.459263571 _4_ IFQ  --- 2 203 cbr 230 [0 3 4 0] ------- [4:1 3:0 30 3] [203] 0 0
s 34.470438571 _4_ AGT  --- 2 204 cbr 210 [0 0 0 0] ------- [4:1 3:0 32 0] [204] 0 0
D 34.470463571 _4_ IFQ  --- 2 204 cbr 230 [0 3 4 0] ------- [4:1 3:0 30 3] [204] 0 0
s 34.481638571 _4_ AGT  --- 2 205 cbr 210 [0 0 0 0] ------- [4:1 3:0 32 0] [205] 0 0
D 34.481663571 _4_ IFQ  --- 2 205 cbr 230 [0 3 4 0] ------- [4:1 3:0 30 3] [205] 0 0
s 34.492838571 _4_ AGT  --- 2 206 cbr 210 [0 0 0 0] ------- [4:1 3:0 32 0] [206] 0 0
D 34.492863571 _4_ IFQ  --- 2 206 cbr 230 [0 3 4 0] ------- [4:1 3:0 30 3] [206] 0 0
r 34.495153667 _3_ AGT  --- 2 62 cbr 230 [5 3 4 0] ------- [4:1 3:0 30 3] [62] 1 0
r 34.501153667 _3_ AGT  --- 2 63 cbr 230 [5 3 4 0] ------- [4:1 3:0 30 3] [63] 1 0
s 34.504038571 _4_ AGT  --- 2 207 cbr 210 [0 0 0 0] ------- [4:1 3:0 32 0] [207] 0 0
s 34.515238571 _4_ AGT  --- 2 208 cbr 210 [0 0 0 0] ------- [4:1 3:0 32 0] [208] 0 0
s 34.526438571 _4_ AGT  --- 2 209 cbr 210 [0 0 0 0] ------- [4:1 3:0 32 0] [209] 0 0
D 34.526463571 _4_ IFQ  --- 2 209 cbr 230 [0 3 4 0] ------- [4:1 3:0 30 3] [209] 0 0
s 34.537638571 _4_ AGT  --- 2 210 cbr 210 [0 0 0 0] ------- [4:1 3:0 32 0] [210] 0 0
D 34.537663571 _4_ IFQ  --- 2 210 cbr 230 [0 3 4 0] ------- [4:1 3:0 30 3] [210] 0 0
s 34.548838571 _4_ AGT  --- 2 211 cbr 210 [0 0 0 0] ------- [4:1 3:0 32 0] [211] 0 0
D 34.548863571 _4_ IFQ  --- 2 211 cbr 230 [0 3 4 0] ------- [4:1 3:0 30 3] [211] 0 0
r 34.555153667 _3_ AGT  --- 2 64 cbr 230 [5 3 4 0] ------- [4:1 3:0 30 3] [64] 1 0
s 34.560038571 _4_ AGT  --- 2 212 cbr 210 [0 0 0 0] ------- [4:1 3:0 32 0] [212] 0 0
r 34.561153667 _3_ AGT  --- 2 65 cbr 230 [5 3 4 0] ------- [4:1 3:0 30 3] [65] 1 0
s 34.571238571 _4_ AGT  --- 2 213 cbr 210 [0 0 0 0] ------- [4:1 3:0 32 0] [213] 0 0
s 34.582438571 _4_ AGT  --- 2 214 cbr 210 [0 0 0 0] ------- [4:1 3:0 32 0] [214] 0 0
D 34.582463571 _4_ IFQ  --- 2 214 cbr 230 [0 3 4 0] ------- [4:1 3:0 30 3] [214] 0 0
s 34.593638571 _4_ AGT  --- 2 215 cbr 210 [0 0 0 0] ------- [4:1 3:0 32 0] [215] 0 0
D 34.593663571 _4_ IFQ  --- 2 215 cbr 230 [0 3 4 0] ------- [4:1 3:0 30 3] [215] 0 0
s 34.604838571 _4_ AGT  --- 2 216 cbr 210 [0 0 0 0] ------- [4:1 3:0 32 0] [216] 0 0
D 34.604863571 _4_ IFQ  --- 2 216 cbr 230 [0 3 4 0] ------- [4:1 3:0 30 3] [216] 0 0
r 34.615153667 _3_ AGT  --- 2 66 cbr 230 [5 3 4 0] ------- [4:1 3:0 30 3] [66] 1 0
s 34.616038571 _4_ AGT  --- 2 217 cbr 210 [0 0 0 0] ------- [4:1 3:0 32 0] [217] 0 0
r 34.621153667 _3_ AGT  --- 2 67 cbr 230 [5 3 4 0] ------- [4:1 3:0 30 3] [67] 1 0
s 34.627238571 _4_ AGT  --- 2 218 cbr 210 [0 0 0 0] ------- [4:1 3:0 32 0] [218] 0 0
s 34.638438571 _4_ AGT  --- 2 219 cbr 210 [0 0 0 0] ------- [4:1 3:0 32 0] [219] 0 0
D 34.638463571 _4_ IFQ  --- 2 219 cbr 230 [0 3 4 0] ------- [4:1 3:0 30 3] [219] 0 0
s 34.649638571 _4_ AGT  --- 2 220 cbr 210 [0 0 0 0] ------- [4:1 3:0 32 0] [220] 0 0
D 34.649663571 _4_ IFQ  --- 2 220 cbr 230 [0 3 4 0] ------- [4:1 3:0 30 3] [220] 0 0
s 34.660838571 _4_ AGT  --- 2 221 cbr 210 [0 0 0 0] ------- [4:1 3:0 32 0] [221] 0 0
D 34.660863571 _4_ IFQ  --- 2 221 cbr 230 [0 3 4 0] ------- [4:1 3:0 30 3] [221] 0 0
s 34.672038571 _4_ AGT  --- 2 222 cbr 210 [0 0 0 0] ------- [4:1 3:0 32 0] [222] 0 0
D 34.672063571 _4_ IFQ  --- 2 222 cbr 230 [0 3 4 0] ------- [4:1 3:0 30 3] [222] 0 0
r 34.675153667 _3_ AGT  --- 2 68 cbr 230 [5 3 4 0] ------- [4:1 3:0 30 3] [68] 1 0
r 34.681153667 _3_ AGT  --- 2 69 cbr 230 [5 3 4 0] ------- [4:1 3:0 30 3] [69] 1 0
s 34.683238571 _4_ AGT  --- 2 223 cbr 210 [0 0 0 0] ------- [4:1 3:0 32 0] [223] 0 0
s 34.694438571 _4_ AGT  --- 2 224 cbr 210 [0 0 0 0] ------- [4:1 3:0 32 0] [224] 0 0
s 34.705638571 _4_ AGT  --- 2 225 cbr 210 [0 0 0 0] ------- [4:1 3:0 32 0] [225] 0 0
D 34.705663571 _4_ IFQ  --- 2 225 cbr 230 [0 3 4 0] ------- [4:1 3:0 30 3] [225] 0 0
s 34.716838571 _4_ AGT  --- 2 226 cbr 210 [0 0 0 0] ------- [4:1 3:0 32 0] [226] 0 0
D 34.716863571 _4_ IFQ  --- 2 226 cbr 230 [0 3 4 0] ------- [4:1 3:0 30 3] [226] 0 0
s 34.728038571 _4_ AGT  --- 2 227 cbr 210 [0 0 0 0] ------- [4:1 3:0 32 0] [227] 0 0
D 34.728063571 _4_ IFQ  --- 2 227 cbr 230 [0 3 4 0] ------- [4:1 3:0 30 3] [227] 0 0
r 34.735153667 _3_ AGT  --- 2 70 cbr 230 [5 3 4 0] ------- [4:1 3:0 30 3] [70] 1 0