s 18.388662496 _12_ AGT  --- 1 0 cbr 210 [0 0 0 0] ------- [12:0 13:0 32 0] [0] 0 0
s 18.397062496 _12_ AGT  --- 1 1 cbr 210 [0 0 0 0] ------- [12:0 13:0 32 0] [1] 0 0
s 18.405462496 _12_ AGT  --- 1 2 cbr 210 [0 0 0 0] ------- [12:0 13:0 32 0] [2] 0 0
s 18.413862496 _12_ AGT  --- 1 3 cbr 210 [0 0 0 0] ------- [12:0 13:0 32 0] [3] 0 0
s 18.422262496 _12_ AGT  --- 1 4 cbr 210 [0 0 0 0] ------- [12:0 13:0 32 0] [4] 0 0
s 18.430662496 _12_ AGT  --- 1 5 cbr 210 [0 0 0 0] ------- [12:0 13:0 32 0] [5] 0 0
s 18.439062496 _12_ AGT  --- 1 6 cbr 210 [0 0 0 0] ------- [12:0 13:0 32 0] [6] 0 0
s 18.447462496 _12_ AGT  --- 1 7 cbr 210 [0 0 0 0] ------- [12:0 13:0 32 0] [7] 0 0
s 18.455862496 _12_ AGT  --- 1 8 cbr 210 [0 0 0 0] ------- [12:0 13:0 32 0] [8] 0 0
s 18.464262496 _12_ AGT  --- 1 9 cbr 210 [0 0 0 0] ------- [12:0 13:0 32 0] [9] 0 0
s 18.472662496 _12_ AGT  --- 1 10 cbr 210 [0 0 0 0] ------- [12:0 13:0 32 0] [10] 0 0
s 18.481062496 _12_ AGT  --- 1 11 cbr 210 [0 0 0 0] ------- [12:0 13:0 32 0] [11] 0 0
s 18.489462496 _12_ AGT  --- 1 12 cbr 210 [0 0 0 0] ------- [12:0 13:0 32 0] [12] 0 0
s 18.497862496 _12_ AGT  --- 1 13 cbr 210 [0 0 0 0] ------- [12:0 13:0 32 0] [13] 0 0
s 18.506262496 _12_ AGT  --- 1 14 cbr 210 [0 0 0 0] ------- [12:0 13:0 32 0] [14] 0 0
s 18.514662496 _12_ AGT  --- 1 15 cbr 210 [0 0 0 0] ------- [12:0 13:0 32 0] [15] 0 0
s 18.523062496 _12_ AGT  --- 1 16 cbr 210 [0 0 0 0] ------- [12:0 13:0 32 0] [16] 0 0
s 18.531462496 _12_ AGT  --- 1 17 cbr 210 [0 0 0 0] ------- [12:0 13:0 32 0] [17] 0 0
s 18.539862496 _12_ AGT  --- 1 18 cbr 210 [0 0 0 0] ------- [12:0 13:0 32 0] [18] 0 0
s 18.548262496 _12_ AGT  --- 1 19 cbr 210 [0 0 0 0] ------- [12:0 13:0 32 0] [19] 0 0
s 18.556662496 _12_ AGT  --- 1 20 cbr 210 [0 0 0 0] ------- [12:0 13:0 32 0] [20] 0 0
s 18.565062496 _12_ AGT  --- 1 21 cbr 210 [0 0 0 0] ------- [12:0 13:0 32 0] [21] 0 0
r 18.565153667 _13_ AGT  --- 1 0 cbr 230 [5 d c 0] ------- [12:0 13:0 30 13] [0] 1 0
s 18.573462496 _12_ AGT  --- 1 22 cbr 210 [0 0 0 0] ------- [12:0 13:0 32 0] [22] 0 0
s 18.581862496 _12_ AGT  --- 1 23 cbr 210 [0 0 0 0] ------- [12:0 13:0 32 0] [23] 0 0
s 18.590262496 _12_ AGT  --- 1 24 cbr 210 [0 0 0 0] ------- [12:0 13:0 32 0] [24] 0 0
r 18.595153667 _13_ AGT  --- 1 20 cbr 230 [5 d c 0] ------- [12:0 13:0 30 13] [20] 1 0
s 18.598662496 _12_ AGT  --- 1 25 cbr 210 [0 0 0 0] ------- [12:0 13:0 32 0] [25] 0 0
s 18.607062496 _12_ AGT  --- 1 26 cbr 210 [0 0 0 0] ------- [12:0 13:0 32 0] [26] 0 0
s 18.615462496 _12_ AGT  --- 1 27 cbr 210 [0 0 0 0] ------- [12:0 13:0 32 0] [27] 0 0
s 18.623862496 _12_ AGT  --- 1 28 cbr 210 [0 0 0 0] ------- [12:0 13:0 32 0] [28] 0 0
r 18.625153667 _13_ AGT  --- 1 1 cbr 230 [5 d c 0] ------- [12:0 13:0 30 13] [1] 1 0
s 18.632262496 _12_ AGT  --- 1 29 cbr 210 [0 0 0 0] ------- [12:0 13:0 32 0] [29] 0 0
s 18.640662496 _12_ AGT  --- 1 30 cbr 210 [0 0 0 0] ------- [12:0 13:0 32 0] [30] 0 0
s 18.649062496 _12_ AGT  --- 1 31 cbr 210 [0 0 0 0] ------- [12:0 13:0 32 0] [31] 0 0
r 18.655153667 _13_ AGT  --- 1 21 cbr 230 [5 d c 0] ------- [12:0 13:0 30 13] [21] 1 0
s 18.657462496 _12_ AGT  --- 1 32 cbr 210 [0 0 0 0] ------- [12:0 13:0 32 0] [32] 0 0
s 18.665862496 _12_ AGT  --- 1 33 cbr 210 [0 0 0 0] ------- [12:0 13:0 32 0] [33] 0 0
s 18.674262496 _12_ AGT  --- 1 34 cbr 210 [0 0 0 0] ------- [12:0 13:0 32 0] [34] 0 0
s 18.682662496 _12_ AGT  --- 1 35 cbr 210 [0 0 0 0] ------- [12:0 13:0 32 0] [35] 0 0
r 18.685153667 _13_ AGT  --- 1 2 cbr 230 [5 d c 0] ------- [12:0 13:0 30 13] [2] 1 0
s 18.691062496 _12_ AGT  --- 1 36 cbr 210 [0 0 0 0] ------- [12:0 13:0 32 0] [36] 0 0
s 18.699462496 _12_ AGT  --- 1 37 cbr 210 [0 0 0 0] ------- [12:0 13:0 32 0] [37] 0 0
s 18.707862496 _12_ AGT  --- 1 38 cbr 210 [0 0 0 0] ------- [12:0 13:0 32 0] [38] 0 0
r 18.715153667 _13_ AGT  --- 1 22 cbr 230 [5 d c 0] ------- [12:0 13:0 30 13] [22] 1 0
s 18.716262496 _12_ AGT  --- 1 39 cbr 210 [0 0 0 0] ------- [12:0 13:0 32 0] [39] 0 0
s 18.724662496 _12_ AGT  --- 1 40 cbr 210 [0 0 0 0] ------- [12:0 13:0 32 0] [40] 0 0
s 18.733062496 _12_ AGT  --- 1 41 cbr 210 [0 0 0 0] ------- [12:0 13:0 32 0] [41] 0 0
s 18.741462496 _12_ AGT  --- 1 42 cbr 210 [0 0 0 0] ------- [12:0 13:0 32 0] [42] 0 0
r 18.745153667 _13_ AGT  --- 1 23 cbr 230 [5 d c 0] ------- [12:0 13:0 30 13] [23] 1 0
s 18.749862496 _12_ AGT  --- 1 43 cbr 210 [0 0 0 0] ------- [12:0 13:0 32 0] [43] 0 0
s 18.758262496 _12_ AGT  --- 1 44 cbr 210 [0 0 0 0] ------- [12:0 13:0 32 0] [44] 0 0
s 18.766662496 _12_ AGT  --- 1 45 cbr 210 [0 0 0 0] ------- [12:0 13:0 32 0] [45] 0 0
s 18.775062496 _12_ AGT  --- 1 46 cbr 210 [0 0 0 0] ------- [12:0 13:0 32 0] [46] 0 0
r 18.775153667 _13_ AGT  --- 1 3 cbr 230 [5 d c 0] ------- [12:0 13:0 30 13] [3] 1 0
s 18.783462496 _12_ AGT  --- 1 47 cbr 210 [0 0 0 0] ------- [12:0 13:0 32 0] [47] 0 0
s 18.791862496 _12_ AGT  --- 1 48 cbr 210 [0 0 0 0] ------- [12:0 13:0 32 0] [48] 0 0
s 18.800262496 _12_ AGT  --- 1 49 cbr 210 [0 0 0 0] ------- [12:0 13:0 32 0] [49] 0 0
r 18.805153667 _13_ AGT  --- 1 24 cbr 230 [5 d c 0] ------- [12:0 13:0 30 13] [24] 1 0
s 18.808662496 _12_ AGT  --- 1 50 cbr 210 [0 0 0 0] ------- [12:0 13:0 32 0] [50] 0 0
s 18.817062496 _12_ AGT  --- 1 51 cbr 210 [0 0 0 0] ------- [12:0 13:0 32 0] [51] 0 0
s 18.825462496 _12_ AGT  --- 1 52 cbr 210 [0 0 0 0] ------- [12:0 13:0 32 0] [52] 0 0
s 18.833862496 _12_ AGT  --- 1 53 cbr 210 [0 0 0 0] ------- [12:0 13:0 32 0] [53] 0 0
r 18.835153667 _13_ AGT  --- 1 4 cbr 230 [5 d c 0] ------- [12:0 13:0 30 13] [4] 1 0
s 18.842262496 _12_ AGT  --- 1 54 cbr 210 [0 0 0 0] ------- [12:0 13:0 32 0] [54] 0 0
s 18.850662496 _12_ AGT  --- 1 55 cbr 210 [0 0 0 0] ------- [12:0 13:0 32 0] [55] 0 0
s 18.859062496 _12_ AGT  --- 1 56 cbr 210 [0 0 0 0] ------- [12:0 13:0 32 0] [56] 0 0
r 18.865153667 _13_ AGT  --- 1 25 cbr 230 [5 d c 0] ------- [12:0 13:0 30 13] [25] 1 0
s 18.867462496 _12_ AGT  --- 1 57 cbr 210 [0 0 0 0] ------- [12:0 13:0 32 0] [57] 0 0
s 18.875862496 _12_ AGT  --- 1 58 cbr 210 [0 0 0 0] ------- [12:0 13:0 32 0] [58] 0 0
s 18.884262496 _12_ AGT  --- 1 59 cbr 210 [0 0 0 0] ------- [12:0 13:0 32 0] [59] 0 0
s 18.892662496 _12_ AGT  --- 1 60 cbr 210 [0 0 0 0] ------- [12:0 13:0 32 0] [60] 0 0
r 18.895153667 _13_ AGT  --- 1 5 cbr 230 [5 d c 0] ------- [12:0 13:0 30 13] [5] 1 0
s 18.901062496 _12_ AGT  --- 1 61 cbr 210 [0 0 0 0] ------- [12:0 13:0 32 0] [61] 0 0
s 18.909462496 _12_ AGT  --- 1 62 cbr 210 [0 0 0 0] ------- [12:0 13:0 32 0] [62] 0 0
D 18.909487496 _12_ IFQ  --- 1 62 cbr 230 [0 d c 0] ------- [12:0 13:0 30 13] [62] 0 0
s 18.917862496 _12_ AGT  --- 1 63 cbr 210 [0 0 0 0] ------- [12:0 13:0 32 0] [63] 0 0
D 18.917887496 _12_ IFQ  --- 1 63 cbr 230 [0 d c 0] ------- [12:0 13:0 30 13] [63] 0 0
r 18.925153667 _13_ AGT  --- 1 26 cbr 230 [5 d c 0] ------- [12:0 13:0 30 13] [26] 1 0
s 18.926262496 _12_ AGT  --- 1 64 cbr 210 [0 0 0 0] ------- [12:0 13:0 32 0] [64] 0 0
s 18.934662496 _12_ AGT  --- 1 65 cbr 210 [0 0 0 0] ------- [12:0 13:0 32 0] [65] 0 0
D 18.934687496 _12_ IFQ  --- 1 65 cbr 230 [0 d c 0] ------- [12:0 13:0 30 13] [65] 0 0
s 18.943062496 _12_ AGT  --- 1 66 cbr 210 [0 0 0 0] ------- [12:0 13:0 32 0] [66] 0 0
D 18.943087496 _12_ IFQ  --- 1 66 cbr 230 [0 d c 0] ------- [12:0 13:0 30 13] [66] 0 0
s 18.951462496 _12_ AGT  --- 1 67 cbr 210 [0 0 0 0] ------- [12:0 13:0 32 0] [67] 0 0
D 18.951487496 _12_ IFQ  --- 1 67 cbr 230 [0 d c 0] ------- [12:0 13:0 30 13] [67] 0 0
r 18.955153667 _13_ AGT  --- 1 6 cbr 230 [5 d c 0] ------- [12:0 13:0 30 13] [6] 1 0
s 18.959862496 _12_ AGT  --- 1 68 cbr 210 [0 0 0 0] ------- [12:0 13:0 32 0] [68] 0 0
D 18.967700391 _12_ IFQ  --- 1 68 cbr 230 [0 d c 0] ------- [12:0 13:0 30 13] [68] 0 0
s 18.968262496 _12_ AGT  --- 1 69 cbr 210 [0 0 0 0] ------- [12:0 13:0 32 0] [69] 0 0
D 18.968287496 _12_ IFQ  --- 1 69 cbr 230 [0 d c 0] ------- [12:0 13:0 30 13] [69] 0 0
s 18.976662496 _12_ AGT  --- 1 70 cbr 210 [0 0 0 0] ------- [12:0 13:0 32 0] [70] 0 0
D 18.976687496 _12_ IFQ  --- 1 70 cbr 230 [0 d c 0] ------- [12:0 13:0 30 13] [70] 0 0
s 18.985062496 _12_ AGT  --- 1 71 cbr 210 [0 0 0 0] ------- [12:0 13:0 32 0] [71] 0 0
D 18.985087496 _12_ IFQ  --- 1 71 cbr 230 [0 d c 0] ------- [12:0 13:0 30 13] [71] 0 0
r 18.985153667 _13_ AGT  --- 1 27 cbr 230 [5 d c 0] ------- [12:0 13:0 30 13] [27] 1 0
s 18.993462496 _12_ AGT  --- 1 72 cbr 210 [0 0 0 0] ------- [12:0 13:0 32 0] [72] 0 0
s 19.001862496 _12_ AGT  --- 1 73 cbr 210 [0 0 0 0] ------- [12:0 13:0 32 0] [73] 0 0
s 19.010262496 _12_ AGT  --- 1 74 cbr 210 [0 0 0 0] ------- [12:0 13:0 32 0] [74] 0 0
D 19.010287496 _12_ IFQ  --- 1 74 cbr 230 [0 d c 0] ------- [12:0 13:0 30 13] [74] 0 0
r 19.015153667 _13_ AGT  --- 1 7 cbr 230 [5 d c 0] ------- [12:0 13:0 30 13] [7] 1 0
s 19.018662496 _12_ AGT  --- 1 75 cbr 210 [0 0 0 0] ------- [12:0 13:0 32 0] [75] 0 0
s 19.027062496 _12_ AGT  --- 1 76 cbr 210 [0 0 0 0] ------- [12:0 13:0 32 0] [76] 0 0
D 19.027087496 _12_ IFQ  --- 1 76 cbr 230 [0 d c 0] ------- [12:0 13:0 30 13] [76] 0 0
s 19.035462496 _12_ AGT  --- 1 77 cbr 210 [0 0 0 0] ------- [12:0 13:0 32 0] [77] 0 0
D 19.035487496 _12_ IFQ  --- 1 77 cbr 230 [0 d c 0] ------- [12:0 13:0 30 13] [77] 0 0
s 19.043862496 _12_ AGT  --- 1 78 cbr 210 [0 0 0 0] ------- [12:0 13:0 32 0] [78] 0 0
D 19.043887496 _12_ IFQ  --- 1 78 cbr 230 [0 d c 0] ------- [12:0 13:0 30 13] [78] 0 0
r 19.045153667 _13_ AGT  --- 1 28 cbr 230 [5 d c 0] ------- [12:0 13:0 30 13] [28] 1 0
s 19.052262496 _12_ AGT  --- 1 79 cbr 210 [0 0 0 0] ------- [12:0 13:0 32 0] [79] 0 0
s 19.060662496 _12_ AGT  --- 1 80 cbr 210 [0 0 0 0] ------- [12:0 13:0 32 0] [80] 0 0
D 19.060687496 _12_ IFQ  --- 1 80 cbr 230 [0 d c 0] ------- [12:0 13:0 30 13] [80] 0 0
s 19.069062496 _12_ AGT  --- 1 81 cbr 210 [0 0 0 0] ------- [12:0 13:0 32 0] [81] 0 0
D 19.069087496 _12_ IFQ  --- 1 81 cbr 230 [0 d c 0] ------- [12:0 13:0 30 13] [81] 0 0
r 19.075153667 _13_ AGT  --- 1 29 cbr 230 [5 d c 0] ------- [12:0 13:0 30 13] [29] 1 0
s 19.077462496 _12_ AGT  --- 1 82 cbr 210 [0 0 0 0] ------- [12:0 13:0 32 0] [82] 0 0
s 19.085862496 _12_ AGT  --- 1 83 cbr 210 [0 0 0 0] ------- [12:0 13:0 32 0] [83] 0 0
D 19.085887496 _12_ IFQ  --- 1 83 cbr 230 [0 d c 0] ------- [12:0 13:0 30 13] [83] 0 0
s 19.094262496 _12_ AGT  --- 1 84 cbr 210 [0 0 0 0] ------- [12:0 13:0 32 0] [84] 0 0
D 19.094287496 _12_ IFQ  --- 1 84 cbr 230 [0 d c 0] ------- [12:0 13:0 30 13] [84] 0 0
s 19.102662496 _12_ AGT  --- 1 85 cbr 210 [0 0 0 0] ------- [12:0 13:0 32 0] [85] 0 0
D 19.102687496 _12_ IFQ  --- 1 85 cbr 230 [0 d c 0] ------- [12:0 13:0 30 13] [85] 0 0
r 19.105153667 _13_ AGT  --- 1 8 cbr 230 [5 d c 0] ------- [12:0 13:0 30 13] [8] 1 0
s 19.111062496 _12_ AGT  --- 1 86 cbr 210 [0 0 0 0] ------- [12:0 13:0 32 0] [86] 0 0
s 19.119462496 _12_ AGT  --- 1 87 cbr 210 [0 0 0 0] ------- [12:0 13:0 32 0] [87] 0 0
D 19.119487496 _12_ IFQ  --- 1 87 cbr 230 [0 d c 0] ------- [12:0 13:0 30 13] [87] 0 0
s 19.127862496 _12_ AGT  --- 1 88 cbr 210 [0 0 0 0] ------- [12:0 13:0 32 0] [88] 0 0
D 19.127887496 _12_ IFQ  --- 1 88 cbr 230 [0 d c 0] ------- [12:0 13:0 30 13] [88] 0 0
r 19.135153667 _13_ AGT  --- 1 30 cbr 230 [5 d c 0] ------- [12:0 13:0 30 13] [30] 1 0
s 19.136262496 _12_ AGT  --- 1 89 cbr 210 [0 0 0 0] ------- [12:0 13:0 32 0] [89] 0 0
s 19.144662496 _12_ AGT  --- 1 90 cbr 210 [0 0 0 0] ------- [12:0 13:0 32 0] [90] 0 0
D 19.144687496 _12_ IFQ  --- 1 90 cbr 230 [0 d c 0] ------- [12:0 13:0 30 13] [90] 0 0
s 19.153062496 _12_ AGT  --- 1 91 cbr 210 [0 0 0 0] ------- [12:0 13:0 32 0] [91] 0 0
D 19.153087496 _12_ IFQ  --- 1 91 cbr 230 [0 d c 0] ------- [12:0 13:0 30 13] [91] 0 0
s 19.161462496 _12_ AGT  --- 1 92 cbr 210 [0 0 0 0] ------- [12:0 13:0 32 0] [92] 0 0
D 19.161487496 _12_ IFQ  --- 1 92 cbr 230 [0 d c 0] ------- [12:0 13:0 30 13] [92] 0 0
r 19.165153667 _13_ AGT  --- 1 9 cbr 230 [5 d c 0] ------- [12:0 13:0 30 13] [9] 1 0
s 19.169862496 _12_ AGT  --- 1 93 cbr 210 [0 0 0 0] ------- [12:0 13:0 32 0] [93] 0 0
s 19.178262496 _12_ AGT  --- 1 94 cbr 210 [0 0 0 0] ------- [12:0 13:0 32 0] [94] 0 0
D 19.178287496 _12_ IFQ  --- 1 94 cbr 230 [0 d c 0] ------- [12:0 13:0 30 13] [94] 0 0
s 19.186662496 _12_ AGT  --- 1 95 cbr 210 [0 0 0 0] ------- [12:0 13:0 32 0] [95] 0 0
D 19.186687496 _12_ IFQ  --- 1 95 cbr 230 [0 d c 0] ------- [12:0 13:0 30 13] [95] 0 0
s 19.195062496 _12_ AGT  --- 1 96 cbr 210 [0 0 0 0] ------- [12:0 13:0 32 0] [96] 0 0
D 19.195087496 _12_ IFQ  --- 1 96 cbr 230 [0 d c 0] ------- [12:0 13:0 30 13] [96] 0 0
r 19.195153667 _13_ AGT  --- 1 31 cbr 230 [5 d c 0] ------- [12:0 13:0 30 13] [31] 1 0
s 19.203462496 _12_ AGT  --- 1 97 cbr 210 [0 0 0 0] ------- [12:0 13:0 32 0] [97] 0 0
s 19.211862496 _12_ AGT  --- 1 98 cbr 210 [0 0 0 0] ------- [12:0 13:0 32 0] [98] 0 0
D 19.211887496 _12_ IFQ  --- 1 98 cbr 230 [0 d c 0] ------- [12:0 13:0 30 13] [98] 0 0
s 19.220262496 _12_ AGT  --- 1 99 cbr 210 [0 0 0 0] ------- [12:0 13:0 32 0] [99] 0 0
D 19.220287496 _12_ IFQ  --- 1 99 cbr 230 [0 d c 0] ------- [12:0 13:0 30 13] [99] 0 0
r 19.225153667 _13_ AGT  --- 1 10 cbr 230 [5 d c 0] ------- [12:0 13:0 30 13] [10] 1 0
s 19.228662496 _12_ AGT  --- 1 100 cbr 210 [0 0 0 0] ------- [12:0 13:0 32 0] [100] 0 0
s 19.237062496 _12_ AGT  --- 1 101 cbr 210 [0 0 0 0] ------- [12:0 13:0 32 0] [101] 0 0
D 19.237087496 _12_ IFQ  --- 1 101 cbr 230 [0 d c 0] ------- [12:0 13:0 30 13] [101] 0 0
s 19.245462496 _12_ AGT  --- 1 102 cbr 210 [0 0 0 0] ------- [12:0 13:0 32 0] [102] 0 0
D 19.245487496 _12_ IFQ  --- 1 102 cbr 230 [0 d c 0] ------- [12:0 13:0 30 13] [102] 0 0
s 19.253862496 _12_ AGT  --- 1 103 cbr 210 [0 0 0 0] ------- [12:0 13:0 32 0] [103] 0 0
D 19.253887496 _12_ IFQ  --- 1 103 cbr 230 [0 d c 0] ------- [12:0 13:0 30 13] [103] 0 0
r 19.255153667 _13_ AGT  --- 1 32 cbr 230 [5 d c 0] ------- [12:0 13:0 30 13] [32] 1 0
s 19.262262496 _12_ AGT  --- 1 104 cbr 210 [0 0 0 0] ------- [12:0 13:0 32 0] [104] 0 0
s 19.270662496 _12_ AGT  --- 1 105 cbr 210 [0 0 0 0] ------- [12:0 13:0 32 0] [105] 0 0
D 19.270687496 _12_ IFQ  --- 1 105 cbr 230 [0 d c 0] ------- [12:0 13:0 30 13] [105] 0 0
s 19.279062496 _12_ AGT  --- 1 106 cbr 210 [0 0 0 0] ------- [12:0 13:0 32 0] [106] 0 0
D 19.279087496 _12_ IFQ  --- 1 106 cbr 230 [0 d c 0] ------- [12:0 13:0 30 13] [106] 0 0
r 19.285153667 _13_ AGT  --- 1 11 cbr 230 [5 d c 0] ------- [12:0 13:0 30 13] [11] 1 0
s 19.287462496 _12_ AGT  --- 1 107 cbr 210 [0 0 0 0] ------- [12:0 13:0 32 0] [107] 0 0
s 19.295862496 _12_ AGT  --- 1 108 cbr 210 [0 0 0 0] ------- [12:0 13:0 32 0] [108] 0 0
D 19.295887496 _12_ IFQ  --- 1 108 cbr 230 [0 d c 0] ------- [12:0 13:0 30 13] [108] 0 0
s 19.304262496 _12_ AGT  --- 1 109 cbr 210 [0 0 0 0] ------- [12:0 13:0 32 0] [109] 0 0
D 19.304287496 _12_ IFQ  --- 1 109 cbr 230 [0 d c 0] ------- [12:0 13:0 30 13] [109] 0 0
s 19.312662496 _12_ AGT  --- 1 110 cbr 210 [0 0 0 0] ------- [12:0 13:0 32 0] [110] 0 0
D 19.312687496 _12_ IFQ  --- 1 110 cbr 230 [0 d c 0] ------- [12:0 13:0 30 13] [110] 0 0
r 19.315153667 _13_ AGT  --- 1 33 cbr 230 [5 d c 0] ------- [12:0 13:0 30 13] [33] 1 0
s 19.321062496 _12_ AGT  --- 1 111 cbr 210 [0 0 0 0] ------- [12:0 13:0 32 0] [111] 0 0
s 19.329462496 _12_ AGT  --- 1 112 cbr 210 [0 0 0 0] ------- [12:0 13:0 32 0] [112] 0 0
D 19.329487496 _12_ IFQ  --- 1 112 cbr 230 [0 d c 0] ------- [12:0 13:0 30 13] [112] 0 0
s 19.337862496 _12_ AGT  --- 1 113 cbr 210 [0 0 0 0] ------- [12:0 13:0 32 0] [113] 0 0
D 19.337887496 _12_ IFQ  --- 1 113 cbr 230 [0 d c 0] ------- [12:0 13:0 30 13] [113] 0 0
r 19.345153667 _13_ AGT  --- 1 12 cbr 230 [5 d c 0] ------- [12:0 13:0 30 13] [12] 1 0
s 19.346262496 _12_ AGT  --- 1 114 cbr 210 [0 0 0 0] ------- [12:0 13:0 32 0] [114] 0 0
s 19.354662496 _12_ AGT  --- 1 115 cbr 210 [0 0 0 0] ------- [12:0 13:0 32 0] [115] 0 0
D 19.354687496 _12_ IFQ  --- 1 115 cbr 230 [0 d c 0] ------- [12:0 13:0 30 13] [115] 0 0
s 19.363062496 _12_ AGT  --- 1 116 cbr 210 [0 0 0 0] ------- [12:0 13:0 32 0] [116] 0 0
D 19.363087496 _12_ IFQ  --- 1 116 cbr 230 [0 d c 0] ------- [12:0 13:0 30 13] [116] 0 0
s 19.371462496 _12_ AGT  --- 1 117 cbr 210 [0 0 0 0] ------- [12:0 13:0 32 0] [117] 0 0
D 19.371487496 _12_ IFQ  --- 1 117 cbr 230 [0 d c 0] ------- [12:0 13:0 30 13] [117] 0 0
r 19.375153667 _13_ AGT  --- 1 34 cbr 230 [5 d c 0] ------- [12:0 13:0 30 13] [34] 1 0
s 19.379862496 _12_ AGT  --- 1 118 cbr 210 [0 0 0 0] ------- [12:0 13:0 32 0] [118] 0 0
s 19.388262496 _12_ AGT  --- 1 119 cbr 210 [0 0 0 0] ------- [12:0 13:0 32 0] [119] 0 0
D 19.388287496 _12_ IFQ  --- 1 119 cbr 230 [0 d c 0] ------- [12:0 13:0 30 13] [119] 0 0
s 19.396662496 _12_ AGT  --- 1 120 cbr 210 [0 0 0 0] ------- [12:0 13:0 32 0] [120] 0 0
D 19.396687496 _12_ IFQ  --- 1 120 cbr 230 [0 d c 0] ------- [12:0 13:0 30 13] [120] 0 0
s 19.405062496 _12_ AGT  --- 1 121 cbr 210 [0 0 0 0] ------- [12:0 13:0 32 0] [121] 0 0
D 19.405087496 _12_ IFQ  --- 1 121 cbr 230 [0 d c 0] ------- [12:0 13:0 30 13] [121] 0 0
r 19.405153667 _13_ AGT  --- 1 13 cbr 230 [5 d c 0] ------- [12:0 13:0 30 13] [13] 1 0
s 19.413462496 _12_ AGT  --- 1 122 cbr 210 [0 0 0 0] ------- [12:0 13:0 32 0] [122] 0 0
s 19.421862496 _12_ AGT  --- 1 123 cbr 210 [0 0 0 0] ------- [12:0 13:0 32 0] [123] 0 0
D 19.421887496 _12_ IFQ  --- 1 123 cbr 230 [0 d c 0] ------- [12:0 13:0 30 13] [123] 0 0
s 19.430262496 _12_ AGT  --- 1 124 cbr 210 [0 0 0 0] ------- [12:0 13:0 32 0] [124] 0 0
D 19.430287496 _12_ IFQ  --- 1 124 cbr 230 [0 d c 0] ------- [12:0 13:0 30 13] [124] 0 0
r 19.435153667 _13_ AGT  --- 1 35 cbr 230 [5 d c 0] ------- [12:0 13:0 30 13] [35] 1 0
s 19.438662496 _12_ AGT  --- 1 125 cbr 210 [0 0 0 0] ------- [12:0 13:0 32 0] [125] 0 0
s 19.447062496 _12_ AGT  --- 1 126 cbr 210 [0 0 0 0] ------- [12:0 13:0 32 0] [126] 0 0
D 19.447087496 _12_ IFQ  --- 1 126 cbr 230 [0 d c 0] ------- [12:0 13:0 30 13] [126] 0 0
s 19.455462496 _12_ AGT  --- 1 127 cbr 210 [0 0 0 0] ------- [12:0 13:0 32 0] [127] 0 0
D 19.455487496 _12_ IFQ  --- 1 127 cbr 230 [0 d c 0] ------- [12:0 13:0 30 13] [127] 0 0
s 19.463862496 _12_ AGT  --- 1 128 cbr 210 [0 0 0 0] ------- [12:0 13:0 32 0] [128] 0 0
D 19.463887496 _12_ IFQ  --- 1 128 cbr 230 [0 d c 0] ------- [12:0 13:0 30 13] [128] 0 0
r 19.465153667 _13_ AGT  --- 1 36 cbr 230 [5 d c 0] ------- [12:0 13:0 30 13] [36] 1 0
s 19.472262496 _12_ AGT  --- 1 129 cbr 210 [0 0 0 0] ------- [12:0 13:0 32 0] [129] 0 0
s 19.480662496 _12_ AGT  --- 1 130 cbr 210 [0 0 0 0] ------- [12:0 13:0 32 0] [130] 0 0
D 19.480687496 _12_ IFQ  --- 1 130 cbr 230 [0 d c 0] ------- [12:0 13:0 30 13] [130] 0 0
s 19.489062496 _12_ AGT  --- 1 131 cbr 210 [0 0 0 0] ------- [12:0 13:0 32 0] [131] 0 0
D 19.489087496 _12_ IFQ  --- 1 131 cbr 230 [0 d c 0] ------- [12:0 13:0 30 13] [131] 0 0
r 19.495153667 _13_ AGT  --- 1 14 cbr 230 [5 d c 0] ------- [12:0 13:0 30 13] [14] 1 0
s 19.497462496 _12_ AGT  --- 1 132 cbr 210 [0 0 0 0] ------- [12:0 13:0 32 0] [132] 0 0
s 19.505862496 _12_ AGT  --- 1 133 cbr 210 [0 0 0 0] ------- [12:0 13:0 32 0] [133] 0 0
D 19.505887496 _12_ IFQ  --- 1 133 cbr 230 [0 d c 0] ------- [12:0 13:0 30 13] [133] 0 0
s 19.514262496 _12_ AGT  --- 1 134 cbr 210 [0 0 0 0] ------- [12:0 13:0 32 0] [134] 0 0
D 19.514287496 _12_ IFQ  --- 1 134 cbr 230 [0 d c 0] ------- [12:0 13:0 30 13] [134] 0 0
s 19.522662496 _12_ AGT  --- 1 135 cbr 210 [0 0 0 0] ------- [12:0 13:0 32 0] [135] 0 0
D 19.522687496 _12_ IFQ  --- 1 135 cbr 230 [0 d c 0] ------- [12:0 13:0 30 13] [135] 0 0
r 19.525153667 _13_ AGT  --- 1 37 cbr 230 [5 d c 0] ------- [12:0 13:0 30 13] [37] 1 0
s 19.531062496 _12_ AGT  --- 1 136 cbr 210 [0 0 0 0] ------- [12:0 13:0 32 0] [136] 0 0
s 19.539462496 _12_ AGT  --- 1 137 cbr 210 [0 0 0 0] ------- [12:0 13:0 32 0] [137] 0 0
D 19.539487496 _12_ IFQ  --- 1 137 cbr 230 [0 d c 0] ------- [12:0 13:0 30 13] [137] 0 0
s 19.547862496 _12_ AGT  --- 1 138 cbr 210 [0 0 0 0] ------- [12:0 13:0 32 0] [138] 0 0
D 19.547887496 _12_ IFQ  --- 1 138 cbr 230 [0 d c 0] ------- [12:0 13:0 30 13] [138] 0 0
r 19.555153667 _13_ AGT  --- 1 15 cbr 230 [5 d c 0] ------- [12:0 13:0 30 13] [15] 1 0
s 19.556262496 _12_ AGT  --- 1 139 cbr 210 [0 0 0 0] ------- [12:0 13:0 32 0] [139] 0 0
s 19.564662496 _12_ AGT  --- 1 140 cbr 210 [0 0 0 0] ------- [12:0 13:0 32 0] [140] 0 0
D 19.564687496 _12_ IFQ  --- 1 140 cbr 230 [0 d c 0] ------- [12:0 13:0 30 13] [140] 0 0
s 19.573062496 _12_ AGT  --- 1 141 cbr 210 [0 0 0 0] ------- [12:0 13:0 32 0] [141] 0 0
D 19.573087496 _12_ IFQ  --- 1 141 cbr 230 [0 d c 0] ------- [12:0 13:0 30 13] [141] 0 0
s 19.581462496 _12_ AGT  --- 1 142 cbr 210 [0 0 0 0] ------- [12:0 13:0 32 0] [142] 0 0
D 19.581487496 _12_ IFQ  --- 1 142 cbr 230 [0 d c 0] ------- [12:0 13:0 30 13] [142] 0 0
r 19.585153667 _13_ AGT  --- 1 38 cbr 230 [5 d c 0] ------- [12:0 13:0 30 13] [38] 1 0
s 19.589862496 _12_ AGT  --- 1 143 cbr 210 [0 0 0 0] ------- [12:0 13:0 32 0] [143] 0 0
s 19.598262496 _12_ AGT  --- 1 144 cbr 210 [0 0 0 0] ------- [12:0 13:0 32 0] [144] 0 0
D 19.598287496 _12_ IFQ  --- 1 144 cbr 230 [0 d c 0] ------- [12:0 13:0 30 13] [144] 0 0
s 19.606662496 _12_ AGT  --- 1 145 cbr 210 [0 0 0 0] ------- [12:0 13:0 32 0] [145] 0 0
D 19.606687496 _12_ IFQ  --- 1 145 cbr 230 [0 d c 0] ------- [12:0 13:0 30 13] [145] 0 0
s 19.615062496 _12_ AGT  --- 1 146 cbr 210 [0 0 0 0] ------- [12:0 13:0 32 0] [146] 0 0
D 19.615087496 _12_ IFQ  --- 1 146 cbr 230 [0 d c 0] ------- [12:0 13:0 30 13] [146] 0 0
r 19.615153667 _13_ AGT  --- 1 16 cbr 230 [5 d c 0] ------- [12:0 13:0 30 13] [16] 1 0
s 19.623462496 _12_ AGT  --- 1 147 cbr 210 [0 0 0 0] ------- [12:0 13:0 32 0] [147] 0 0
s 19.631862496 _12_ AGT  --- 1 148 cbr 210 [0 0 0 0] ------- [12:0 13:0 32 0] [148] 0 0
D 19.631887496 _12_ IFQ  --- 1 148 cbr 230 [0 d c 0] ------- [12:0 13:0 30 13] [148] 0 0
s 19.640262496 _12_ AGT  --- 1 149 cbr 210 [0 0 0 0] ------- [12:0 13:0 32 0] [149] 0 0
D 19.640287496 _12_ IFQ  --- 1 149 cbr 230 [0 d c 0] ------- [12:0 13:0 30 13] [149] 0 0
r 19.645153667 _13_ AGT  --- 1 39 cbr 230 [5 d c 0] ------- [12:0 13:0 30 13] [39] 1 0
s 19.648662496 _12_ AGT  --- 1 150 cbr 210 [0 0 0 0] ------- [12:0 13:0 32 0] [150] 0 0
s 19.657062496 _12_ AGT  --- 1 151 cbr 210 [0 0 0 0] ------- [12:0 13:0 32 0] [151] 0 0
D 19.657087496 _12_ IFQ  --- 1 151 cbr 230 [0 d c 0] ------- [12:0 13:0 30 13] [151] 0 0
s 19.665462496 _12_ AGT  --- 1 152 cbr 210 [0 0 0 0] ------- [12:0 13:0 32 0] [152] 0 0
D 19.665487496 _12_ IFQ  --- 1 152 cbr 230 [0 d c 0] ------- [12:0 13:0 30 13] [152] 0 0
s 19.673862496 _12_ AGT  --- 1 153 cbr 210 [0 0 0 0] ------- [12:0 13:0 32 0] [153] 0 0
D 19.673887496 _12_ IFQ  --- 1 153 cbr 230 [0 d c 0] ------- [12:0 13:0 30 13] [153] 0 0
r 19.675153667 _13_ AGT  --- 1 17 cbr 230 [5 d c 0] ------- [12:0 13:0 30 13] [17] 1 0
s 19.682262496 _12_ AGT  --- 1 154 cbr 210 [0 0 0 0] ------- [12:0 13:0 32 0] [154] 0 0
s 19.690662496 _12_ AGT  --- 1 155 cbr 210 [0 0 0 0] ------- [12:0 13:0 32 0] [155] 0 0
D 19.690687496 _12_ IFQ  --- 1 155 cbr 230 [0 d c 0] ------- [12:0 13:0 30 13] [155] 0 0
s 19.699062496 _12_ AGT  --- 1 156 cbr 210 [0 0 0 0] ------- [12:0 13:0 32 0] [156] 0 0
D 19.699087496 _12_ IFQ  --- 1 156 cbr 230 [0 d c 0] ------- [12:0 13:0 30 13] [156] 0 0
r 19.705153667 _13_ AGT  --- 1 40 cbr 230 [5 d c 0] ------- [12:0 13:0 30 13] [40] 1 0
s 19.707462496 _12_ AGT  --- 1 157 cbr 210 [0 0 0 0] ------- [12:0 13:0 32 0] [157] 0 0
s 19.715862496 _12_ AGT  --- 1 158 cbr 210 [0 0 0 0] ------- [12:0 13:0 32 0] [158] 0 0
D 19.715887496 _12_ IFQ  --- 1 158 cbr 230 [0 d c 0] ------- [12:0 13:0 30 13] [158] 0 0
s 19.724262496 _12_ AGT  --- 1 159 cbr 210 [0 0 0 0] ------- [12:0 13:0 32 0] [159] 0 0
D 19.724287496 _12_ IFQ  --- 1 159 cbr 230 [0 d c 0] ------- [12:0 13:0 30 13] [159] 0 0
s 19.732662496 _12_ AGT  --- 1 160 cbr 210 [0 0 0 0] ------- [12:0 13:0 32 0] [160] 0 0
D 19.732687496 _12_ IFQ  --- 1 160 cbr 230 [0 d c 0] ------- [12:0 13:0 30 13] [160] 0 0
r 19.735153667 _13_ AGT  --- 1 18 cbr 230 [5 d c 0] ------- [12:0 13:0 30 13] [18] 1 0
s 19.741062496 _12_ AGT  --- 1 161 cbr 210 [0 0 0 0] ------- [12:0 13:0 32 0] [161] 0 0
s 19.749462496 _12_ AGT  --- 1 162 cbr 210 [0 0 0 0] ------- [12:0 13:0 32 0] [162] 0 0
D 19.749487496 _12_ IFQ  --- 1 162 cbr 230 [0 d c 0] ------- [12:0 13:0 30 13] [162] 0 0
s 19.757862496 _12_ AGT  --- 1 163 cbr 210 [0 0 0 0] ------- [12:0 13:0 32 0] [163] 0 0
D 19.757887496 _12_ IFQ  --- 1 163 cbr 230 [0 d c 0] ------- [12:0 13:0 30 13] [163] 0 0
r 19.765153667 _13_ AGT  --- 1 41 cbr 230 [5 d c 0] ------- [12:0 13:0 30 13] [41] 1 0
s 19.766262496 _12_ AGT  --- 1 164 cbr 210 [0 0 0 0] ------- [12:0 13:0 32 0] [164] 0 0
s 19.774662496 _12_ AGT  --- 1 165 cbr 210 [0 0 0 0] ------- [12:0 13:0 32 0] [165] 0 0
D 19.774687496 _12_ IFQ  --- 1 165 cbr 230 [0 d c 0] ------- [12:0 13:0 30 13] [165] 0 0
s 19.783062496 _12_ AGT  --- 1 166 cbr 210 [0 0 0 0] ------- [12:0 13:0 32 0] [166] 0 0
D 19.783087496 _12_ IFQ  --- 1 166 cbr 230 [0 d c 0] ------- [12:0 13:0 30 13] [166] 0 0
s 19.791462496 _12_ AGT  --- 1 167 cbr 210 [0 0 0 0] ------- [12:0 13:0 32 0] [167] 0 0
D 19.791487496 _12_ IFQ  --- 1 167 cbr 230 [0 d c 0] ------- [12:0 13:0 30 13] [167] 0 0
r 19.795153667 _13_ AGT  --- 1 42 cbr 230 [5 d c 0] ------- [12:0 13:0 30 13] [42] 1 0
s 19.799862496 _12_ AGT  --- 1 168 cbr 210 [0 0 0 0] ------- [12:0 13:0 32 0] [168] 0 0
s 19.808262496 _12_ AGT  --- 1 169 cbr 210 [0 0 0 0] ------- [12:0 13:0 32 0] [169] 0 0
D 19.808287496 _12_ IFQ  --- 1 169 cbr 230 [0 d c 0] ------- [12:0 13:0 30 13] [169] 0 0
s 19.816662496 _12_ AGT  --- 1 170 cbr 210 [0 0 0 0] ------- [12:0 13:0 32 0] [170] 0 0
D 19.816687496 _12_ IFQ  --- 1 170 cbr 230 [0 d c 0] ------- [12:0 13:0 30 13] [170] 0 0
s 19.825062496 _12_ AGT  --- 1 171 cbr 210 [0 0 0 0] ------- [12:0 13:0 32 0] [171] 0 0
D 19.825087496 _12_ IFQ  --- 1 171 cbr 230 [0 d c 0] ------- [12:0 13:0 30 13] [171] 0 0
r 19.825153667 _13_ AGT  --- 1 19 cbr 230 [5 d c 0] ------- [12:0 13:0 30 13] [19] 1 0
s 19.833462496 _12_ AGT  --- 1 172 cbr 210 [0 0 0 0] ------- [12:0 13:0 32 0] [172] 0 0
s 19.841862496 _12_ AGT  --- 1 173 cbr 210 [0 0 0 0] ------- [12:0 13:0 32 0] [173] 0 0
D 19.841887496 _12_ IFQ  --- 1 173 cbr 230 [0 d c 0] ------- [12:0 13:0 30 13] [173] 0 0
s 19.850262496 _12_ AGT  --- 1 174 cbr 210 [0 0 0 0] ------- [12:0 13:0 32 0] [174] 0 0
D 19.850287496 _12_ IFQ  --- 1 174 cbr 230 [0 d c 0] ------- [12:0 13:0 30 13] [174] 0 0
r 19.855153667 _13_ AGT  --- 1 43 cbr 230 [5 d c 0] ------- [12:0 13:0 30 13] [43] 1 0
s 19.858662496 _12_ AGT  --- 1 175 cbr 210 [0 0 0 0] ------- [12:0 13:0 32 0] [175] 0 0
s 19.867062496 _12_ AGT  --- 1 176 cbr 210 [0 0 0 0] ------- [12:0 13:0 32 0] [176] 0 0
D 19.867087496 _12_ IFQ  --- 1 176 cbr 230 [0 d c 0] ------- [12:0 13:0 30 13] [176] 0 0
s 19.875462496 _12_ AGT  --- 1 177 cbr 210 [0 0 0 0] ------- [12:0 13:0 32 0] [177] 0 0
D 19.875487496 _12_ IFQ  --- 1 177 cbr 230 [0 d c 0] ------- [12:0 13:0 30 13] [177] 0 0
s 19.883862496 _12_ AGT  --- 1 178 cbr 210 [0 0 0 0] ------- [12:0 13:0 32 0] [178] 0 0
D 19.883887496 _12_ IFQ  --- 1 178 cbr 230 [0 d c 0] ------- [12:0 13:0 30 13] [178] 0 0
r 19.885153667 _13_ AGT  --- 1 44 cbr 230 [5 d c 0] ------- [12:0 13:0 30 13] [44] 1 0
s 19.892262496 _12_ AGT  --- 1 179 cbr 210 [0 0 0 0] ------- [12:0 13:0 32 0] [179] 0 0
s 19.900662496 _12_ AGT  --- 1 180 cbr 210 [0 0 0 0] ------- [12:0 13:0 32 0] [180] 0 0
D 19.900687496 _12_ IFQ  --- 1 180 cbr 230 [0 d c 0] ------- [12:0 13:0 30 13] [180] 0 0
s 19.909062496 _12_ AGT  --- 1 181 cbr 210 [0 0 0 0] ------- [12:0 13:0 32 0] [181] 0 0
D 19.909087496 _12_ IFQ  --- 1 181 cbr 230 [0 d c 0] ------- [12:0 13:0 30 13] [181] 0 0
r 19.915153667 _13_ AGT  --- 1 45 cbr 230 [5 d c 0] ------- [12:0 13:0 30 13] [45] 1 0
s 19.917462496 _12_ AGT  --- 1 182 cbr 210 [0 0 0 0] ------- [12:0 13:0 32 0] [182] 0 0
s 19.925862496 _12_ AGT  --- 1 183 cbr 210 [0 0 0 0] ------- [12:0 13:0 32 0] [183] 0 0
D 19.925887496 _12_ IFQ  --- 1 183 cbr 230 [0 d c 0] ------- [12:0 13:0 30 13] [183] 0 0
s 19.934262496 _12_ AGT  --- 1 184 cbr 210 [0 0 0 0] ------- [12:0 13:0 32 0] [184] 0 0
D 19.934287496 _12_ IFQ  --- 1 184 cbr 230 [0 d c 0] ------- [12:0 13:0 30 13] [184] 0 0
s 19.942662496 _12_ AGT  --- 1 185 cbr 210 [0 0 0 0] ------- [12:0 13:0 32 0] [185] 0 0
D 19.942687496 _12_ IFQ  --- 1 185 cbr 230 [0 d c 0] ------- [12:0 13:0 30 13] [185] 0 0
r 19.945153667 _13_ AGT  --- 1 46 cbr 230 [5 d c 0] ------- [12:0 13:0 30 13] [46] 1 0
s 19.951062496 _12_ AGT  --- 1 186 cbr 210 [0 0 0 0] ------- [12:0 13:0 32 0] [186] 0 0
s 19.959462496 _12_ AGT  --- 1 187 cbr 210 [0 0 0 0] ------- [12:0 13:0 32 0] [187] 0 0
D 19.959487496 _12_ IFQ  --- 1 187 cbr 230 [0 d c 0] ------- [12:0 13:0 30 13] [187] 0 0
s 19.967862496 _12_ AGT  --- 1 188 cbr 210 [0 0 0 0] ------- [12:0 13:0 32 0] [188] 0 0
D 19.967887496 _12_ IFQ  --- 1 188 cbr 230 [0 d c 0] ------- [12:0 13:0 30 13] [188] 0 0
r 19.975153667 _13_ AGT  --- 1 47 cbr 230 [5 d c 0] ------- [12:0 13:0 30 13] [47] 1 0
s 19.976262496 _12_ AGT  --- 1 189 cbr 210 [0 0 0 0] ------- [12:0 13:0 32 0] [189] 0 0
s 19.984662496 _12_ AGT  --- 1 190 cbr 210 [0 0 0 0] ------- [12:0 13:0 32 0] [190] 0 0
D 19.984687496 _12_ IFQ  --- 1 190 cbr 230 [0 d c 0] ------- [12:0 13:0 30 13] [190] 0 0
s 19.993062496 _12_ AGT  --- 1 191 cbr 210 [0 0 0 0] ------- [12:0 13:0 32 0] [191] 0 0
D 19.993087496 _12_ IFQ  --- 1 191 cbr 230 [0 d c 0] ------- [12:0 13:0 30 13] [191] 0 0
D 20.000091763 _12_ IFQ  --- 1 189 cbr 230 [0 d c 0] ------- [12:0 13:0 30 13] [189] 0 0
s 20.001462496 _12_ AGT  --- 1 192 cbr 210 [0 0 0 0] ------- [12:0 13:0 32 0] [192] 0 0
D 20.001487496 _12_ IFQ  --- 1 192 cbr 230 [0 d c 0] ------- [12:0 13:0 30 13] [192] 0 0
r 20.005153667 _13_ AGT  --- 1 48 cbr 230 [5 d c 0] ------- [12:0 13:0 30 13] [48] 1 0
s 20.009862496 _12_ AGT  --- 1 193 cbr 210 [0 0 0 0] ------- [12:0 13:0 32 0] [193] 0 0
s 20.018262496 _12_ AGT  --- 1 194 cbr 210 [0 0 0 0] ------- [12:0 13:0 32 0] [194] 0 0
s 20.026662496 _12_ AGT  --- 1 195 cbr 210 [0 0 0 0] ------- [12:0 13:0 32 0] [195] 0 0
D 20.026687496 _12_ IFQ  --- 1 195 cbr 230 [0 d c 0] ------- [12:0 13:0 30 13] [195] 0 0
s 20.035062496 _12_ AGT  --- 1 196 cbr 210 [0 0 0 0] ------- [12:0 13:0 32 0] [196] 0 0