s 20.731329695 _4_ AGT  --- 1 0 cbr 210 [0 0 0 0] ------- [4:0 1:0 32 0] [0] 0 0
s 20.899329695 _4_ AGT  --- 1 1 cbr 210 [0 0 0 0] ------- [4:0 1:0 32 0] [1] 0 0
s 21.067329695 _4_ AGT  --- 1 2 cbr 210 [0 0 0 0] ------- [4:0 1:0 32 0] [2] 0 0
r 21.169153667 _1_ AGT  --- 1 0 cbr 230 [5 1 2 0] ------- [4:0 1:0 28 1] [0] 3 0
r 21.229153667 _1_ AGT  --- 1 2 cbr 230 [5 1 2 0] ------- [4:0 1:0 28 1] [2] 3 0
s 21.235329695 _4_ AGT  --- 1 3 cbr 210 [0 0 0 0] ------- [4:0 1:0 32 0] [3] 0 0
r 21.289153667 _1_ AGT  --- 1 3 cbr 230 [5 1 2 0] ------- [4:0 1:0 28 1] [3] 3 0
s 21.403329695 _4_ AGT  --- 1 4 cbr 210 [0 0 0 0] ------- [4:0 1:0 32 0] [4] 0 0
r 21.439153667 _1_ AGT  --- 1 4 cbr 230 [5 1 2 0] ------- [4:0 1:0 28 1] [4] 3 0
s 21.571329695 _4_ AGT  --- 1 5 cbr 210 [0 0 0 0] ------- [4:0 1:0 32 0] [5] 0 0
r 21.619153667 _1_ AGT  --- 1 5 cbr 230 [5 1 2 0] ------- [4:0 1:0 28 1] [5] 3 0
s 21.739329695 _4_ AGT  --- 1 6 cbr 210 [0 0 0 0] ------- [4:0 1:0 32 0] [6] 0 0
r 21.799153667 _1_ AGT  --- 1 6 cbr 230 [5 1 2 0] ------- [4:0 1:0 28 1] [6] 3 0
s 21.907329695 _4_ AGT  --- 1 7 cbr 210 [0 0 0 0] ------- [4:0 1:0 32 0] [7] 0 0
r 21.949153667 _1_ AGT  --- 1 7 cbr 230 [5 1 2 0] ------- [4:0 1:0 28 1] [7] 3 0
s 22.075329695 _4_ AGT  --- 1 8 cbr 210 [0 0 0 0] ------- [4:0 1:0 32 0] [8] 0 0
r 22.129153667 _1_ AGT  --- 1 8 cbr 230 [5 1 2 0] ------- [4:0 1:0 28 1] [8] 3 0
s 22.243329695 _4_ AGT  --- 1 9 cbr 210 [0 0 0 0] ------- [4:0 1:0 32 0] [9] 0 0
r 22.279153667 _1_ AGT  --- 1 9 cbr 230 [5 1 2 0] ------- [4:0 1:0 28 1] [9] 3 0
s 22.411329695 _4_ AGT  --- 1 10 cbr 210 [0 0 0 0] ------- [4:0 1:0 32 0] [10] 0 0
r 22.459153667 _1_ AGT  --- 1 10 cbr 230 [5 1 2 0] ------- [4:0 1:0 28 1] [10] 3 0
s 22.579329695 _4_ AGT  --- 1 11 cbr 210 [0 0 0 0] ------- [4:0 1:0 32 0] [11] 0 0
r 22.639153667 _1_ AGT  --- 1 11 cbr 230 [5 1 2 0] ------- [4:0 1:0 28 1] [11] 3 0
s 22.747329695 _4_ AGT  --- 1 12 cbr 210 [0 0 0 0] ------- [4:0 1:0 32 0] [12] 0 0
r 22.789153667 _1_ AGT  --- 1 12 cbr 230 [5 1 2 0] ------- [4:0 1:0 28 1] [12] 3 0
s 22.915329695 _4_ AGT  --- 1 13 cbr 210 [0 0 0 0] ------- [4:0 1:0 32 0] [13] 0 0
r 22.969153667 _1_ AGT  --- 1 13 cbr 230 [5 1 2 0] ------- [4:0 1:0 28 1] [13] 3 0
s 23.083329695 _4_ AGT  --- 1 14 cbr 210 [0 0 0 0] ------- [4:0 1:0 32 0] [14] 0 0
r 23.119153667 _1_ AGT  --- 1 14 cbr 230 [5 1 2 0] ------- [4:0 1:0 28 1] [14] 3 0
s 23.251329695 _4_ AGT  --- 1 15 cbr 210 [0 0 0 0] ------- [4:0 1:0 32 0] [15] 0 0
r 23.299153667 _1_ AGT  --- 1 15 cbr 230 [5 1 2 0] ------- [4:0 1:0 28 1] [15] 3 0
s 23.419329695 _4_ AGT  --- 1 16 cbr 210 [0 0 0 0] ------- [4:0 1:0 32 0] [16] 0 0
r 23.479153667 _1_ AGT  --- 1 16 cbr 230 [5 1 2 0] ------- [4:0 1:0 28 1] [16] 3 0
s 23.587329695 _4_ AGT  --- 1 17 cbr 210 [0 0 0 0] ------- [4:0 1:0 32 0] [17] 0 0
r 23.629153667 _1_ AGT  --- 1 17 cbr 230 [5 1 2 0] ------- [4:0 1:0 28 1] [17] 3 0
s 23.755329695 _4_ AGT  --- 1 18 cbr 210 [0 0 0 0] ------- [4:0 1:0 32 0] [18] 0 0
r 23.809153667 _1_ AGT  --- 1 18 cbr 230 [5 1 2 0] ------- [4:0 1:0 28 1] [18] 3 0
s 23.923329695 _4_ AGT  --- 1 19 cbr 210 [0 0 0 0] ------- [4:0 1:0 32 0] [19] 0 0
r 23.959153667 _1_ AGT  --- 1 19 cbr 230 [5 1 2 0] ------- [4:0 1:0 28 1] [19] 3 0
s 24.091329695 _4_ AGT  --- 1 20 cbr 210 [0 0 0 0] ------- [4:0 1:0 32 0] [20] 0 0
r 24.139153667 _1_ AGT  --- 1 20 cbr 230 [5 1 2 0] ------- [4:0 1:0 28 1] [20] 3 0
s 24.259329695 _4_ AGT  --- 1 21 cbr 210 [0 0 0 0] ------- [4:0 1:0 32 0] [21] 0 0
r 24.319153667 _1_ AGT  --- 1 21 cbr 230 [5 1 2 0] ------- [4:0 1:0 28 1] [21] 3 0
s 24.427329695 _4_ AGT  --- 1 22 cbr 210 [0 0 0 0] ------- [4:0 1:0 32 0] [22] 0 0
r 24.469153667 _1_ AGT  --- 1 22 cbr 230 [5 1 2 0] ------- [4:0 1:0 28 1] [22] 3 0
s 24.595329695 _4_ AGT  --- 1 23 cbr 210 [0 0 0 0] ------- [4:0 1:0 32 0] [23] 0 0
r 24.649153667 _1_ AGT  --- 1 23 cbr 230 [5 1 2 0] ------- [4:0 1:0 28 1] [23] 3 0
s 24.763329695 _4_ AGT  --- 1 24 cbr 210 [0 0 0 0] ------- [4:0 1:0 32 0] [24] 0 0
r 24.799153667 _1_ AGT  --- 1 24 cbr 230 [5 1 2 0] ------- [4:0 1:0 28 1] [24] 3 0
s 24.931329695 _4_ AGT  --- 1 25 cbr 210 [0 0 0 0] ------- [4:0 1:0 32 0] [25] 0 0
r 24.979153667 _1_ AGT  --- 1 25 cbr 230 [5 1 2 0] ------- [4:0 1:0 28 1] [25] 3 0
s 25.099329695 _4_ AGT  --- 1 26 cbr 210 [0 0 0 0] ------- [4:0 1:0 32 0] [26] 0 0
r 25.159153667 _1_ AGT  --- 1 26 cbr 230 [5 1 2 0] ------- [4:0 1:0 28 1] [26] 3 0
s 25.267329695 _4_ AGT  --- 1 27 cbr 210 [0 0 0 0] ------- [4:0 1:0 32 0] [27] 0 0
r 25.309153667 _1_ AGT  --- 1 27 cbr 230 [5 1 2 0] ------- [4:0 1:0 28 1] [27] 3 0
s 25.435329695 _4_ AGT  --- 1 28 cbr 210 [0 0 0 0] ------- [4:0 1:0 32 0] [28] 0 0
r 25.489153667 _1_ AGT  --- 1 28 cbr 230 [5 1 2 0] ------- [4:0 1:0 28 1] [28] 3 0
s 25.603329695 _4_ AGT  --- 1 29 cbr 210 [0 0 0 0] ------- [4:0 1:0 32 0] [29] 0 0
r 25.639153667 _1_ AGT  --- 1 29 cbr 230 [5 1 2 0] ------- [4:0 1:0 28 1] [29] 3 0
s 25.771329695 _4_ AGT  --- 1 30 cbr 210 [0 0 0 0] ------- [4:0 1:0 32 0] [30] 0 0
r 25.819153667 _1_ AGT  --- 1 30 cbr 230 [5 1 2 0] ------- [4:0 1:0 28 1] [30] 3 0
s 25.939329695 _4_ AGT  --- 1 31 cbr 210 [0 0 0 0] ------- [4:0 1:0 32 0] [31] 0 0
r 25.999153667 _1_ AGT  --- 1 31 cbr 230 [5 1 2 0] ------- [4:0 1:0 28 1] [31] 3 0
s 26.107329695 _4_ AGT  --- 1 32 cbr 210 [0 0 0 0] ------- [4:0 1:0 32 0] [32] 0 0
r 26.149153667 _1_ AGT  --- 1 32 cbr 230 [5 1 2 0] ------- [4:0 1:0 28 1] [32] 3 0
s 26.275329695 _4_ AGT  --- 1 33 cbr 210 [0 0 0 0] ------- [4:0 1:0 32 0] [33] 0 0
r 26.329153667 _1_ AGT  --- 1 33 cbr 230 [5 1 2 0] ------- [4:0 1:0 28 1] [33] 3 0
s 26.443329695 _4_ AGT  --- 1 34 cbr 210 [0 0 0 0] ------- [4:0 1:0 32 0] [34] 0 0
r 26.479153667 _1_ AGT  --- 1 34 cbr 230 [5 1 2 0] ------- [4:0 1:0 28 1] [34] 3 0
s 26.611329695 _4_ AGT  --- 1 35 cbr 210 [0 0 0 0] ------- [4:0 1:0 32 0] [35] 0 0
r 26.659153667 _1_ AGT  --- 1 35 cbr 230 [5 1 2 0] ------- [4:0 1:0 28 1] [35] 3 0
s 26.779329695 _4_ AGT  --- 1 36 cbr 210 [0 0 0 0] ------- [4:0 1:0 32 0] [36] 0 0
r 26.839153667 _1_ AGT  --- 1 36 cbr 230 [5 1 2 0] ------- [4:0 1:0 28 1] [36] 3 0
s 26.947329695 _4_ AGT  --- 1 37 cbr 210 [0 0 0 0] ------- [4:0 1:0 32 0] [37] 0 0
r 26.989153667 _1_ AGT  --- 1 37 cbr 230 [5 1 2 0] ------- [4:0 1:0 28 1] [37] 3 0
s 27.115329695 _4_ AGT  --- 1 38 cbr 210 [0 0 0 0] ------- [4:0 1:0 32 0] [38] 0 0
r 27.169153667 _1_ AGT  --- 1 38 cbr 230 [5 1 2 0] ------- [4:0 1:0 28 1] [38] 3 0
s 27.283329695 _4_ AGT  --- 1 39 cbr 210 [0 0 0 0] ------- [4:0 1:0 32 0] [39] 0 0
r 27.319153667 _1_ AGT  --- 1 39 cbr 230 [5 1 2 0] ------- [4:0 1:0 28 1] [39] 3 0
s 27.451329695 _4_ AGT  --- 1 40 cbr 210 [0 0 0 0] ------- [4:0 1:0 32 0] [40] 0 0
r 27.499153667 _1_ AGT  --- 1 40 cbr 230 [5 1 2 0] ------- [4:0 1:0 28 1] [40] 3 0
s 27.619329695 _4_ AGT  --- 1 41 cbr 210 [0 0 0 0] ------- [4:0 1:0 32 0] [41] 0 0
r 27.679153667 _1_ AGT  --- 1 41 cbr 230 [5 1 2 0] ------- [4:0 1:0 28 1] [41] 3 0
s 27.787329695 _4_ AGT  --- 1 42 cbr 210 [0 0 0 0] ------- [4:0 1:0 32 0] [42] 0 0
r 27.859153667 _1_ AGT  --- 1 42 cbr 230 [5 1 2 0] ------- [4:0 1:0 28 1] [42] 3 0
s 27.955329695 _4_ AGT  --- 1 43 cbr 210 [0 0 0 0] ------- [4:0 1:0 32 0] [43] 0 0
r 28.009153667 _1_ AGT  --- 1 43 cbr 230 [5 1 2 0] ------- [4:0 1:0 28 1] [43] 3 0
s 28.123329695 _4_ AGT  --- 1 44 cbr 210 [0 0 0 0] ------- [4:0 1:0 32 0] [44] 0 0
r 28.159153667 _1_ AGT  --- 1 44 cbr 230 [5 1 2 0] ------- [4:0 1:0 28 1] [44] 3 0
s 28.291329695 _4_ AGT  --- 1 45 cbr 210 [0 0 0 0] ------- [4:0 1:0 32 0] [45] 0 0
r 28.339153667 _1_ AGT  --- 1 45 cbr 230 [5 1 2 0] ------- [4:0 1:0 28 1] [45] 3 0
s 28.459329695 _4_ AGT  --- 1 46 cbr 210 [0 0 0 0] ------- [4:0 1:0 32 0] [46] 0 0
r 28.519153667 _1_ AGT  --- 1 46 cbr 230 [5 1 2 0] ------- [4:0 1:0 28 1] [46] 3 0
s 28.627329695 _4_ AGT  --- 1 47 cbr 210 [0 0 0 0] ------- [4:0 1:0 32 0] [47] 0 0
r 28.669153667 _1_ AGT  --- 1 47 cbr 230 [5 1 2 0] ------- [4:0 1:0 28 1] [47] 3 0
s 28.795329695 _4_ AGT  --- 1 48 cbr 210 [0 0 0 0] ------- [4:0 1:0 32 0] [48] 0 0
r 28.849153667 _1_ AGT  --- 1 48 cbr 230 [5 1 2 0] ------- [4:0 1:0 28 1] [48] 3 0
s 28.963329695 _4_ AGT  --- 1 49 cbr 210 [0 0 0 0] ------- [4:0 1:0 32 0] [49] 0 0
r 28.999153667 _1_ AGT  --- 1 49 cbr 230 [5 1 2 0] ------- [4:0 1:0 28 1] [49] 3 0
s 29.131329695 _4_ AGT  --- 1 50 cbr 210 [0 0 0 0] ------- [4:0 1:0 32 0] [50] 0 0
r 29.179153667 _1_ AGT  --- 1 50 cbr 230 [5 1 2 0] ------- [4:0 1:0 28 1] [50] 3 0
s 29.299329695 _4_ AGT  --- 1 51 cbr 210 [0 0 0 0] ------- [4:0 1:0 32 0] [51] 0 0
r 29.359153667 _1_ AGT  --- 1 51 cbr 230 [5 1 2 0] ------- [4:0 1:0 28 1] [51] 3 0
s 29.467329695 _4_ AGT  --- 1 52 cbr 210 [0 0 0 0] ------- [4:0 1:0 32 0] [52] 0 0
r 29.509153667 _1_ AGT  --- 1 52 cbr 230 [5 1 2 0] ------- [4:0 1:0 28 1] [52] 3 0
s 29.635329695 _4_ AGT  --- 1 53 cbr 210 [0 0 0 0] ------- [4:0 1:0 32 0] [53] 0 0
r 29.689153667 _1_ AGT  --- 1 53 cbr 230 [5 1 2 0] ------- [4:0 1:0 28 1] [53] 3 0
s 29.803329695 _4_ AGT  --- 1 54 cbr 210 [0 0 0 0] ------- [4:0 1:0 32 0] [54] 0 0
r 29.839153667 _1_ AGT  --- 1 54 cbr 230 [5 1 2 0] ------- [4:0 1:0 28 1] [54] 3 0
s 29.971329695 _4_ AGT  --- 1 55 cbr 210 [0 0 0 0] ------- [4:0 1:0 32 0] [55] 0 0
r 30.019153667 _1_ AGT  --- 1 55 cbr 230 [5 1 2 0] ------- [4:0 1:0 28 1] [55] 3 0
s 30.139329695 _4_ AGT  --- 1 56 cbr 210 [0 0 0 0] ------- [4:0 1:0 32 0] [56] 0 0
r 30.199153667 _1_ AGT  --- 1 56 cbr 230 [5 1 2 0] ------- [4:0 1:0 28 1] [56] 3 0
s 30.307329695 _4_ AGT  --- 1 57 cbr 210 [0 0 0 0] ------- [4:0 1:0 32 0] [57] 0 0
r 30.349153667 _1_ AGT  --- 1 57 cbr 230 [5 1 2 0] ------- [4:0 1:0 28 1] [57] 3 0
s 30.475329695 _4_ AGT  --- 1 58 cbr 210 [0 0 0 0] ------- [4:0 1:0 32 0] [58] 0 0
r 30.529153667 _1_ AGT  --- 1 58 cbr 230 [5 1 2 0] ------- [4:0 1:0 28 1] [58] 3 0
s 30.643329695 _4_ AGT  --- 1 59 cbr 210 [0 0 0 0] ------- [4:0 1:0 32 0] [59] 0 0
r 30.679153667 _1_ AGT  --- 1 59 cbr 230 [5 1 2 0] ------- [4:0 1:0 28 1] [59] 3 0
s 30.811329695 _4_ AGT  --- 1 60 cbr 210 [0 0 0 0] ------- [4:0 1:0 32 0] [60] 0 0
r 30.859153667 _1_ AGT  --- 1 60 cbr 230 [5 1 2 0] ------- [4:0 1:0 28 1] [60] 3 0
s 30.979329695 _4_ AGT  --- 1 61 cbr 210 [0 0 0 0] ------- [4:0 1:0 32 0] [61] 0 0
r 31.039153667 _1_ AGT  --- 1 61 cbr 230 [5 1 2 0] ------- [4:0 1:0 28 1] [61] 3 0
s 31.147329695 _4_ AGT  --- 1 62 cbr 210 [0 0 0 0] ------- [4:0 1:0 32 0] [62] 0 0
r 31.189153667 _1_ AGT  --- 1 62 cbr 230 [5 1 2 0] ------- [4:0 1:0 28 1] [62] 3 0
s 31.315329695 _4_ AGT  --- 1 63 cbr 210 [0 0 0 0] ------- [4:0 1:0 32 0] [63] 0 0
r 31.369153667 _1_ AGT  --- 1 63 cbr 230 [5 1 2 0] ------- [4:0 1:0 28 1] [63] 3 0
