n -t * -s 0  -x 50 -y 50 -Z 0 -z 10  -v circle -c black
n -t * -s 1  -x 50 -y 250 -Z 0 -z 10  -v circle -c black
n -t * -s 2  -x 50 -y 450 -Z 0 -z 10  -v circle -c black
n -t * -s 3  -x 50 -y 650 -Z 0 -z 10  -v circle -c black
n -t * -s 4  -x 50 -y 850 -Z 0 -z 10  -v circle -c black
n -t * -s 5  -x 250 -y 50 -Z 0 -z 10  -v circle -c black
n -t * -s 6  -x 250 -y 250 -Z 0 -z 10  -v circle -c black
n -t * -s 7  -x 250 -y 450 -Z 0 -z 10  -v circle -c black
n -t * -s 8  -x 250 -y 650 -Z 0 -z 10  -v circle -c black
n -t * -s 9  -x 250 -y 850 -Z 0 -z 10  -v circle -c black
n -t * -s 10  -x 450 -y 50 -Z 0 -z 10  -v circle -c black
n -t * -s 11  -x 450 -y 250 -Z 0 -z 10  -v circle -c black
n -t * -s 12  -x 450 -y 450 -Z 0 -z 10  -v circle -c black
n -t * -s 13  -x 450 -y 650 -Z 0 -z 10  -v circle -c black
n -t * -s 14  -x 450 -y 850 -Z 0 -z 10  -v circle -c black
n -t * -s 15  -x 650 -y 50 -Z 0 -z 10  -v circle -c black
n -t * -s 16  -x 650 -y 250 -Z 0 -z 10  -v circle -c black
n -t * -s 17  -x 650 -y 450 -Z 0 -z 10  -v circle -c black
n -t * -s 18  -x 650 -y 650 -Z 0 -z 10  -v circle -c black
n -t * -s 19  -x 650 -y 850 -Z 0 -z 10  -v circle -c black
n -t * -s 20  -x 850 -y 50 -Z 0 -z 10  -v circle -c black
n -t * -s 21  -x 850 -y 250 -Z 0 -z 10  -v circle -c black
n -t * -s 22  -x 850 -y 450 -Z 0 -z 10  -v circle -c black
n -t * -s 23  -x 850 -y 650 -Z 0 -z 10  -v circle -c black
n -t * -s 24  -x 850 -y 850 -Z 0 -z 10  -v circle -c black
V -t * -v 1.0a5 -a 0
W -t * -x 1000 -y 1000
A -t * -n 1 -p 0 -o 0x7fffffff -c 30 -a 1
A -t * -h 1 -m 1073741823 -s 0
+ -t 21.053381274 -s 13 -d -1 -p cbr -e 210 -c 2 -a 0 -i 0 -k AGT 
- -t 21.053381274 -s 13 -d -1 -p cbr -e 210 -c 2 -a 0 -i 0 -k AGT
h -t 21.053381274 -s 13 -d -1 -p cbr -e 210 -c 2 -a 0 -i 0 -k AGT
+ -t 21.064581274 -s 13 -d -1 -p cbr -e 210 -c 2 -a 0 -i 1 -k AGT 
- -t 21.064581274 -s 13 -d -1 -p cbr -e 210 -c 2 -a 0 -i 1 -k AGT
h -t 21.064581274 -s 13 -d -1 -p cbr -e 210 -c 2 -a 0 -i 1 -k AGT
+ -t 21.075781274 -s 13 -d -1 -p cbr -e 210 -c 2 -a 0 -i 2 -k AGT 
- -t 21.075781274 -s 13 -d -1 -p cbr -e 210 -c 2 -a 0 -i 2 -k AGT
h -t 21.075781274 -s 13 -d -1 -p cbr -e 210 -c 2 -a 0 -i 2 -k AGT
+ -t 21.086981274 -s 13 -d -1 -p cbr -e 210 -c 2 -a 0 -i 3 -k AGT 
- -t 21.086981274 -s 13 -d -1 -p cbr -e 210 -c 2 -a 0 -i 3 -k AGT
h -t 21.086981274 -s 13 -d -1 -p cbr -e 210 -c 2 -a 0 -i 3 -k AGT
+ -t 21.098181274 -s 13 -d -1 -p cbr -e 210 -c 2 -a 0 -i 4 -k AGT 
- -t 21.098181274 -s 13 -d -1 -p cbr -e 210 -c 2 -a 0 -i 4 -k AGT
h -t 21.098181274 -s 13 -d -1 -p cbr -e 210 -c 2 -a 0 -i 4 -k AGT
+ -t 21.109381274 -s 13 -d -1 -p cbr -e 210 -c 2 -a 0 -i 5 -k AGT 
- -t 21.109381274 -s 13 -d -1 -p cbr -e 210 -c 2 -a 0 -i 5 -k AGT
h -t 21.109381274 -s 13 -d -1 -p cbr -e 210 -c 2 -a 0 -i 5 -k AGT
+ -t 21.120581274 -s 13 -d -1 -p cbr -e 210 -c 2 -a 0 -i 6 -k AGT 
- -t 21.120581274 -s 13 -d -1 -p cbr -e 210 -c 2 -a 0 -i 6 -k AGT
h -t 21.120581274 -s 13 -d -1 -p cbr -e 210 -c 2 -a 0 -i 6 -k AGT
+ -t 21.131781274 -s 13 -d -1 -p cbr -e 210 -c 2 -a 0 -i 7 -k AGT 
- -t 21.131781274 -s 13 -d -1 -p cbr -e 210 -c 2 -a 0 -i 7 -k AGT
h -t 21.131781274 -s 13 -d -1 -p cbr -e 210 -c 2 -a 0 -i 7 -k AGT
+ -t 21.142981274 -s 13 -d -1 -p cbr -e 210 -c 2 -a 0 -i 8 -k AGT 
- -t 21.142981274 -s 13 -d -1 -p cbr -e 210 -c 2 -a 0 -i 8 -k AGT
h -t 21.142981274 -s 13 -d -1 -p cbr -e 210 -c 2 -a 0 -i 8 -k AGT
+ -t 21.154181274 -s 13 -d -1 -p cbr -e 210 -c 2 -a 0 -i 9 -k AGT 
- -t 21.154181274 -s 13 -d -1 -p cbr -e 210 -c 2 -a 0 -i 9 -k AGT
h -t 21.154181274 -s 13 -d -1 -p cbr -e 210 -c 2 -a 0 -i 9 -k AGT
+ -t 21.165381274 -s 13 -d -1 -p cbr -e 210 -c 2 -a 0 -i 10 -k AGT 
- -t 21.165381274 -s 13 -d -1 -p cbr -e 210 -c 2 -a 0 -i 10 -k AGT
h -t 21.165381274 -s 13 -d -1 -p cbr -e 210 -c 2 -a 0 -i 10 -k AGT
+ -t 21.176581274 -s 13 -d -1 -p cbr -e 210 -c 2 -a 0 -i 11 -k AGT 
- -t 21.176581274 -s 13 -d -1 -p cbr -e 210 -c 2 -a 0 -i 11 -k AGT
h -t 21.176581274 -s 13 -d -1 -p cbr -e 210 -c 2 -a 0 -i 11 -k AGT
+ -t 21.187781274 -s 13 -d -1 -p cbr -e 210 -c 2 -a 0 -i 12 -k AGT 
- -t 21.187781274 -s 13 -d -1 -p cbr -e 210 -c 2 -a 0 -i 12 -k AGT
h -t 21.187781274 -s 13 -d -1 -p cbr -e 210 -c 2 -a 0 -i 12 -k AGT
+ -t 21.198981274 -s 13 -d -1 -p cbr -e 210 -c 2 -a 0 -i 13 -k AGT 
- -t 21.198981274 -s 13 -d -1 -p cbr -e 210 -c 2 -a 0 -i 13 -k AGT
h -t 21.198981274 -s 13 -d -1 -p cbr -e 210 -c 2 -a 0 -i 13 -k AGT
+ -t 21.210181274 -s 13 -d -1 -p cbr -e 210 -c 2 -a 0 -i 14 -k AGT 
- -t 21.210181274 -s 13 -d -1 -p cbr -e 210 -c 2 -a 0 -i 14 -k AGT
h -t 21.210181274 -s 13 -d -1 -p cbr -e 210 -c 2 -a 0 -i 14 -k AGT
+ -t 21.221381274 -s 13 -d -1 -p cbr -e 210 -c 2 -a 0 -i 15 -k AGT 
- -t 21.221381274 -s 13 -d -1 -p cbr -e 210 -c 2 -a 0 -i 15 -k AGT
h -t 21.221381274 -s 13 -d -1 -p cbr -e 210 -c 2 -a 0 -i 15 -k AGT
+ -t 21.232581274 -s 13 -d -1 -p cbr -e 210 -c 2 -a 0 -i 16 -k AGT 
- -t 21.232581274 -s 13 -d -1 -p cbr -e 210 -c 2 -a 0 -i 16 -k AGT
h -t 21.232581274 -s 13 -d -1 -p cbr -e 210 -c 2 -a 0 -i 16 -k AGT
+ -t 21.243781274 -s 13 -d -1 -p cbr -e 210 -c 2 -a 0 -i 17 -k AGT 
- -t 21.243781274 -s 13 -d -1 -p cbr -e 210 -c 2 -a 0 -i 17 -k AGT
h -t 21.243781274 -s 13 -d -1 -p cbr -e 210 -c 2 -a 0 -i 17 -k AGT
+ -t 21.254981274 -s 13 -d -1 -p cbr -e 210 -c 2 -a 0 -i 18 -k AGT 
- -t 21.254981274 -s 13 -d -1 -p cbr -e 210 -c 2 -a 0 -i 18 -k AGT
h -t 21.254981274 -s 13 -d -1 -p cbr -e 210 -c 2 -a 0 -i 18 -k AGT
+ -t 21.266181274 -s 13 -d -1 -p cbr -e 210 -c 2 -a 0 -i 19 -k AGT 
- -t 21.266181274 -s 13 -d -1 -p cbr -e 210 -c 2 -a 0 -i 19 -k AGT
h -t 21.266181274 -s 13 -d -1 -p cbr -e 210 -c 2 -a 0 -i 19 -k AGT
+ -t 21.277381274 -s 13 -d -1 -p cbr -e 210 -c 2 -a 0 -i 20 -k AGT 
- -t 21.277381274 -s 13 -d -1 -p cbr -e 210 -c 2 -a 0 -i 20 -k AGT
h -t 21.277381274 -s 13 -d -1 -p cbr -e 210 -c 2 -a 0 -i 20 -k AGT
+ -t 21.288581274 -s 13 -d -1 -p cbr -e 210 -c 2 -a 0 -i 21 -k AGT 
- -t 21.288581274 -s 13 -d -1 -p cbr -e 210 -c 2 -a 0 -i 21 -k AGT
h -t 21.288581274 -s 13 -d -1 -p cbr -e 210 -c 2 -a 0 -i 21 -k AGT
+ -t 21.299781274 -s 13 -d -1 -p cbr -e 210 -c 2 -a 0 -i 22 -k AGT 
- -t 21.299781274 -s 13 -d -1 -p cbr -e 210 -c 2 -a 0 -i 22 -k AGT
h -t 21.299781274 -s 13 -d -1 -p cbr -e 210 -c 2 -a 0 -i 22 -k AGT
+ -t 21.310981274 -s 13 -d -1 -p cbr -e 210 -c 2 -a 0 -i 23 -k AGT 
- -t 21.310981274 -s 13 -d -1 -p cbr -e 210 -c 2 -a 0 -i 23 -k AGT
h -t 21.310981274 -s 13 -d -1 -p cbr -e 210 -c 2 -a 0 -i 23 -k AGT
+ -t 21.322181274 -s 13 -d -1 -p cbr -e 210 -c 2 -a 0 -i 24 -k AGT 
- -t 21.322181274 -s 13 -d -1 -p cbr -e 210 -c 2 -a 0 -i 24 -k AGT
h -t 21.322181274 -s 13 -d -1 -p cbr -e 210 -c 2 -a 0 -i 24 -k AGT
+ -t 21.333381274 -s 13 -d -1 -p cbr -e 210 -c 2 -a 0 -i 25 -k AGT 
- -t 21.333381274 -s 13 -d -1 -p cbr -e 210 -c 2 -a 0 -i 25 -k AGT
h -t 21.333381274 -s 13 -d -1 -p cbr -e 210 -c 2 -a 0 -i 25 -k AGT
+ -t 21.344581274 -s 13 -d -1 -p cbr -e 210 -c 2 -a 0 -i 26 -k AGT 
- -t 21.344581274 -s 13 -d -1 -p cbr -e 210 -c 2 -a 0 -i 26 -k AGT
h -t 21.344581274 -s 13 -d -1 -p cbr -e 210 -c 2 -a 0 -i 26 -k AGT
+ -t 21.355781274 -s 13 -d -1 -p cbr -e 210 -c 2 -a 0 -i 27 -k AGT 
- -t 21.355781274 -s 13 -d -1 -p cbr -e 210 -c 2 -a 0 -i 27 -k AGT
h -t 21.355781274 -s 13 -d -1 -p cbr -e 210 -c 2 -a 0 -i 27 -k AGT
+ -t 21.366981274 -s 13 -d -1 -p cbr -e 210 -c 2 -a 0 -i 28 -k AGT 
- -t 21.366981274 -s 13 -d -1 -p cbr -e 210 -c 2 -a 0 -i 28 -k AGT
h -t 21.366981274 -s 13 -d -1 -p cbr -e 210 -c 2 -a 0 -i 28 -k AGT
+ -t 21.378181274 -s 13 -d -1 -p cbr -e 210 -c 2 -a 0 -i 29 -k AGT 
- -t 21.378181274 -s 13 -d -1 -p cbr -e 210 -c 2 -a 0 -i 29 -k AGT
h -t 21.378181274 -s 13 -d -1 -p cbr -e 210 -c 2 -a 0 -i 29 -k AGT
+ -t 21.389381274 -s 13 -d -1 -p cbr -e 210 -c 2 -a 0 -i 30 -k AGT 
- -t 21.389381274 -s 13 -d -1 -p cbr -e 210 -c 2 -a 0 -i 30 -k AGT
h -t 21.389381274 -s 13 -d -1 -p cbr -e 210 -c 2 -a 0 -i 30 -k AGT
+ -t 21.400581274 -s 13 -d -1 -p cbr -e 210 -c 2 -a 0 -i 31 -k AGT 
- -t 21.400581274 -s 13 -d -1 -p cbr -e 210 -c 2 -a 0 -i 31 -k AGT
h -t 21.400581274 -s 13 -d -1 -p cbr -e 210 -c 2 -a 0 -i 31 -k AGT
+ -t 21.411781274 -s 13 -d -1 -p cbr -e 210 -c 2 -a 0 -i 32 -k AGT 
- -t 21.411781274 -s 13 -d -1 -p cbr -e 210 -c 2 -a 0 -i 32 -k AGT
h -t 21.411781274 -s 13 -d -1 -p cbr -e 210 -c 2 -a 0 -i 32 -k AGT
+ -t 21.422981274 -s 13 -d -1 -p cbr -e 210 -c 2 -a 0 -i 33 -k AGT 
- -t 21.422981274 -s 13 -d -1 -p cbr -e 210 -c 2 -a 0 -i 33 -k AGT
h -t 21.422981274 -s 13 -d -1 -p cbr -e 210 -c 2 -a 0 -i 33 -k AGT
+ -t 21.434181274 -s 13 -d -1 -p cbr -e 210 -c 2 -a 0 -i 34 -k AGT 
- -t 21.434181274 -s 13 -d -1 -p cbr -e 210 -c 2 -a 0 -i 34 -k AGT
h -t 21.434181274 -s 13 -d -1 -p cbr -e 210 -c 2 -a 0 -i 34 -k AGT
+ -t 21.445381274 -s 13 -d -1 -p cbr -e 210 -c 2 -a 0 -i 35 -k AGT 
- -t 21.445381274 -s 13 -d -1 -p cbr -e 210 -c 2 -a 0 -i 35 -k AGT
h -t 21.445381274 -s 13 -d -1 -p cbr -e 210 -c 2 -a 0 -i 35 -k AGT
+ -t 21.456581274 -s 13 -d -1 -p cbr -e 210 -c 2 -a 0 -i 36 -k AGT 
- -t 21.456581274 -s 13 -d -1 -p cbr -e 210 -c 2 -a 0 -i 36 -k AGT
h -t 21.456581274 -s 13 -d -1 -p cbr -e 210 -c 2 -a 0 -i 36 -k AGT
+ -t 21.467781274 -s 13 -d -1 -p cbr -e 210 -c 2 -a 0 -i 37 -k AGT 
- -t 21.467781274 -s 13 -d -1 -p cbr -e 210 -c 2 -a 0 -i 37 -k AGT
h -t 21.467781274 -s 13 -d -1 -p cbr -e 210 -c 2 -a 0 -i 37 -k AGT
+ -t 21.478981274 -s 13 -d -1 -p cbr -e 210 -c 2 -a 0 -i 38 -k AGT 
- -t 21.478981274 -s 13 -d -1 -p cbr -e 210 -c 2 -a 0 -i 38 -k AGT
h -t 21.478981274 -s 13 -d -1 -p cbr -e 210 -c 2 -a 0 -i 38 -k AGT
+ -t 21.490181274 -s 13 -d -1 -p cbr -e 210 -c 2 -a 0 -i 39 -k AGT 
- -t 21.490181274 -s 13 -d -1 -p cbr -e 210 -c 2 -a 0 -i 39 -k AGT
h -t 21.490181274 -s 13 -d -1 -p cbr -e 210 -c 2 -a 0 -i 39 -k AGT
+ -t 21.501381274 -s 13 -d -1 -p cbr -e 210 -c 2 -a 0 -i 40 -k AGT 
- -t 21.501381274 -s 13 -d -1 -p cbr -e 210 -c 2 -a 0 -i 40 -k AGT
h -t 21.501381274 -s 13 -d -1 -p cbr -e 210 -c 2 -a 0 -i 40 -k AGT
+ -t 21.512581274 -s 13 -d -1 -p cbr -e 210 -c 2 -a 0 -i 41 -k AGT 
- -t 21.512581274 -s 13 -d -1 -p cbr -e 210 -c 2 -a 0 -i 41 -k AGT
h -t 21.512581274 -s 13 -d -1 -p cbr -e 210 -c 2 -a 0 -i 41 -k AGT
+ -t 21.523781274 -s 13 -d -1 -p cbr -e 210 -c 2 -a 0 -i 42 -k AGT 
- -t 21.523781274 -s 13 -d -1 -p cbr -e 210 -c 2 -a 0 -i 42 -k AGT
h -t 21.523781274 -s 13 -d -1 -p cbr -e 210 -c 2 -a 0 -i 42 -k AGT
+ -t 21.534981274 -s 13 -d -1 -p cbr -e 210 -c 2 -a 0 -i 43 -k AGT 
- -t 21.534981274 -s 13 -d -1 -p cbr -e 210 -c 2 -a 0 -i 43 -k AGT
h -t 21.534981274 -s 13 -d -1 -p cbr -e 210 -c 2 -a 0 -i 43 -k AGT
+ -t 21.546181274 -s 13 -d -1 -p cbr -e 210 -c 2 -a 0 -i 44 -k AGT 
- -t 21.546181274 -s 13 -d -1 -p cbr -e 210 -c 2 -a 0 -i 44 -k AGT
h -t 21.546181274 -s 13 -d -1 -p cbr -e 210 -c 2 -a 0 -i 44 -k AGT
+ -t 21.557381274 -s 13 -d -1 -p cbr -e 210 -c 2 -a 0 -i 45 -k AGT 
- -t 21.557381274 -s 13 -d -1 -p cbr -e 210 -c 2 -a 0 -i 45 -k AGT
h -t 21.557381274 -s 13 -d -1 -p cbr -e 210 -c 2 -a 0 -i 45 -k AGT
+ -t 21.568581274 -s 13 -d -1 -p cbr -e 210 -c 2 -a 0 -i 46 -k AGT 
- -t 21.568581274 -s 13 -d -1 -p cbr -e 210 -c 2 -a 0 -i 46 -k AGT
h -t 21.568581274 -s 13 -d -1 -p cbr -e 210 -c 2 -a 0 -i 46 -k AGT
+ -t 21.579781274 -s 13 -d -1 -p cbr -e 210 -c 2 -a 0 -i 47 -k AGT 
- -t 21.579781274 -s 13 -d -1 -p cbr -e 210 -c 2 -a 0 -i 47 -k AGT
h -t 21.579781274 -s 13 -d -1 -p cbr -e 210 -c 2 -a 0 -i 47 -k AGT
+ -t 21.590981274 -s 13 -d -1 -p cbr -e 210 -c 2 -a 0 -i 48 -k AGT 
- -t 21.590981274 -s 13 -d -1 -p cbr -e 210 -c 2 -a 0 -i 48 -k AGT
h -t 21.590981274 -s 13 -d -1 -p cbr -e 210 -c 2 -a 0 -i 48 -k AGT
+ -t 21.602181274 -s 13 -d -1 -p cbr -e 210 -c 2 -a 0 -i 49 -k AGT 
- -t 21.602181274 -s 13 -d -1 -p cbr -e 210 -c 2 -a 0 -i 49 -k AGT
h -t 21.602181274 -s 13 -d -1 -p cbr -e 210 -c 2 -a 0 -i 49 -k AGT
+ -t 21.613381274 -s 13 -d -1 -p cbr -e 210 -c 2 -a 0 -i 50 -k AGT 
- -t 21.613381274 -s 13 -d -1 -p cbr -e 210 -c 2 -a 0 -i 50 -k AGT
h -t 21.613381274 -s 13 -d -1 -p cbr -e 210 -c 2 -a 0 -i 50 -k AGT
+ -t 21.624581274 -s 13 -d -1 -p cbr -e 210 -c 2 -a 0 -i 51 -k AGT 
- -t 21.624581274 -s 13 -d -1 -p cbr -e 210 -c 2 -a 0 -i 51 -k AGT
h -t 21.624581274 -s 13 -d -1 -p cbr -e 210 -c 2 -a 0 -i 51 -k AGT
+ -t 21.635781274 -s 13 -d -1 -p cbr -e 210 -c 2 -a 0 -i 52 -k AGT 
- -t 21.635781274 -s 13 -d -1 -p cbr -e 210 -c 2 -a 0 -i 52 -k AGT
h -t 21.635781274 -s 13 -d -1 -p cbr -e 210 -c 2 -a 0 -i 52 -k AGT
+ -t 21.646981274 -s 13 -d -1 -p cbr -e 210 -c 2 -a 0 -i 53 -k AGT 
- -t 21.646981274 -s 13 -d -1 -p cbr -e 210 -c 2 -a 0 -i 53 -k AGT
h -t 21.646981274 -s 13 -d -1 -p cbr -e 210 -c 2 -a 0 -i 53 -k AGT
+ -t 21.658181274 -s 13 -d -1 -p cbr -e 210 -c 2 -a 0 -i 54 -k AGT 
- -t 21.658181274 -s 13 -d -1 -p cbr -e 210 -c 2 -a 0 -i 54 -k AGT
h -t 21.658181274 -s 13 -d -1 -p cbr -e 210 -c 2 -a 0 -i 54 -k AGT
+ -t 21.669381274 -s 13 -d -1 -p cbr -e 210 -c 2 -a 0 -i 55 -k AGT 
- -t 21.669381274 -s 13 -d -1 -p cbr -e 210 -c 2 -a 0 -i 55 -k AGT
h -t 21.669381274 -s 13 -d -1 -p cbr -e 210 -c 2 -a 0 -i 55 -k AGT
+ -t 21.680581274 -s 13 -d -1 -p cbr -e 210 -c 2 -a 0 -i 56 -k AGT 
- -t 21.680581274 -s 13 -d -1 -p cbr -e 210 -c 2 -a 0 -i 56 -k AGT
h -t 21.680581274 -s 13 -d -1 -p cbr -e 210 -c 2 -a 0 -i 56 -k AGT
+ -t 21.691781274 -s 13 -d -1 -p cbr -e 210 -c 2 -a 0 -i 57 -k AGT 
- -t 21.691781274 -s 13 -d -1 -p cbr -e 210 -c 2 -a 0 -i 57 -k AGT
h -t 21.691781274 -s 13 -d -1 -p cbr -e 210 -c 2 -a 0 -i 57 -k AGT
+ -t 21.702981274 -s 13 -d -1 -p cbr -e 210 -c 2 -a 0 -i 58 -k AGT 
- -t 21.702981274 -s 13 -d -1 -p cbr -e 210 -c 2 -a 0 -i 58 -k AGT
h -t 21.702981274 -s 13 -d -1 -p cbr -e 210 -c 2 -a 0 -i 58 -k AGT
+ -t 21.714181274 -s 13 -d -1 -p cbr -e 210 -c 2 -a 0 -i 59 -k AGT 
- -t 21.714181274 -s 13 -d -1 -p cbr -e 210 -c 2 -a 0 -i 59 -k AGT
h -t 21.714181274 -s 13 -d -1 -p cbr -e 210 -c 2 -a 0 -i 59 -k AGT
+ -t 21.725381274 -s 13 -d -1 -p cbr -e 210 -c 2 -a 0 -i 60 -k AGT 
- -t 21.725381274 -s 13 -d -1 -p cbr -e 210 -c 2 -a 0 -i 60 -k AGT
h -t 21.725381274 -s 13 -d -1 -p cbr -e 210 -c 2 -a 0 -i 60 -k AGT
+ -t 21.736581274 -s 13 -d -1 -p cbr -e 210 -c 2 -a 0 -i 61 -k AGT 
- -t 21.736581274 -s 13 -d -1 -p cbr -e 210 -c 2 -a 0 -i 61 -k AGT
h -t 21.736581274 -s 13 -d -1 -p cbr -e 210 -c 2 -a 0 -i 61 -k AGT
+ -t 21.747781274 -s 13 -d -1 -p cbr -e 210 -c 2 -a 0 -i 62 -k AGT 
- -t 21.747781274 -s 13 -d -1 -p cbr -e 210 -c 2 -a 0 -i 62 -k AGT
h -t 21.747781274 -s 13 -d -1 -p cbr -e 210 -c 2 -a 0 -i 62 -k AGT
+ -t 21.758981274 -s 13 -d -1 -p cbr -e 210 -c 2 -a 0 -i 63 -k AGT 
- -t 21.758981274 -s 13 -d -1 -p cbr -e 210 -c 2 -a 0 -i 63 -k AGT
h -t 21.758981274 -s 13 -d -1 -p cbr -e 210 -c 2 -a 0 -i 63 -k AGT
+ -t 21.770181274 -s 13 -d -1 -p cbr -e 210 -c 2 -a 0 -i 64 -k AGT 
- -t 21.770181274 -s 13 -d -1 -p cbr -e 210 -c 2 -a 0 -i 64 -k AGT
h -t 21.770181274 -s 13 -d -1 -p cbr -e 210 -c 2 -a 0 -i 64 -k AGT
d -t 21.770181274 -s 13 -d -1 -p cbr -e 230 -c 2 -a 0 -i 0 -k RTR
+ -t 21.781381274 -s 13 -d -1 -p cbr -e 210 -c 2 -a 0 -i 65 -k AGT 
- -t 21.781381274 -s 13 -d -1 -p cbr -e 210 -c 2 -a 0 -i 65 -k AGT
h -t 21.781381274 -s 13 -d -1 -p cbr -e 210 -c 2 -a 0 -i 65 -k AGT
d -t 21.781381274 -s 13 -d -1 -p cbr -e 230 -c 2 -a 0 -i 1 -k RTR
+ -t 21.792581274 -s 13 -d -1 -p cbr -e 210 -c 2 -a 0 -i 66 -k AGT 
- -t 21.792581274 -s 13 -d -1 -p cbr -e 210 -c 2 -a 0 -i 66 -k AGT
h -t 21.792581274 -s 13 -d -1 -p cbr -e 210 -c 2 -a 0 -i 66 -k AGT
d -t 21.792581274 -s 13 -d -1 -p cbr -e 230 -c 2 -a 0 -i 2 -k RTR
+ -t 21.803781274 -s 13 -d -1 -p cbr -e 210 -c 2 -a 0 -i 67 -k AGT 
- -t 21.803781274 -s 13 -d -1 -p cbr -e 210 -c 2 -a 0 -i 67 -k AGT
h -t 21.803781274 -s 13 -d -1 -p cbr -e 210 -c 2 -a 0 -i 67 -k AGT
d -t 21.803781274 -s 13 -d -1 -p cbr -e 230 -c 2 -a 0 -i 3 -k RTR
+ -t 21.814981274 -s 13 -d -1 -p cbr -e 210 -c 2 -a 0 -i 68 -k AGT 
- -t 21.814981274 -s 13 -d -1 -p cbr -e 210 -c 2 -a 0 -i 68 -k AGT
h -t 21.814981274 -s 13 -d -1 -p cbr -e 210 -c 2 -a 0 -i 68 -k AGT
d -t 21.814981274 -s 13 -d -1 -p cbr -e 230 -c 2 -a 0 -i 4 -k RTR
+ -t 21.826181274 -s 13 -d -1 -p cbr -e 210 -c 2 -a 0 -i 69 -k AGT 
- -t 21.826181274 -s 13 -d -1 -p cbr -e 210 -c 2 -a 0 -i 69 -k AGT
h -t 21.826181274 -s 13 -d -1 -p cbr -e 210 -c 2 -a 0 -i 69 -k AGT
d -t 21.826181274 -s 13 -d -1 -p cbr -e 230 -c 2 -a 0 -i 5 -k RTR
+ -t 21.837381274 -s 13 -d -1 -p cbr -e 210 -c 2 -a 0 -i 70 -k AGT 
- -t 21.837381274 -s 13 -d -1 -p cbr -e 210 -c 2 -a 0 -i 70 -k AGT
h -t 21.837381274 -s 13 -d -1 -p cbr -e 210 -c 2 -a 0 -i 70 -k AGT
d -t 21.837381274 -s 13 -d -1 -p cbr -e 230 -c 2 -a 0 -i 6 -k RTR
+ -t 21.848581274 -s 13 -d -1 -p cbr -e 210 -c 2 -a 0 -i 71 -k AGT 
- -t 21.848581274 -s 13 -d -1 -p cbr -e 210 -c 2 -a 0 -i 71 -k AGT
h -t 21.848581274 -s 13 -d -1 -p cbr -e 210 -c 2 -a 0 -i 71 -k AGT
d -t 21.848581274 -s 13 -d -1 -p cbr -e 230 -c 2 -a 0 -i 7 -k RTR
+ -t 21.859781274 -s 13 -d -1 -p cbr -e 210 -c 2 -a 0 -i 72 -k AGT 
- -t 21.859781274 -s 13 -d -1 -p cbr -e 210 -c 2 -a 0 -i 72 -k AGT
h -t 21.859781274 -s 13 -d -1 -p cbr -e 210 -c 2 -a 0 -i 72 -k AGT
d -t 21.859781274 -s 13 -d -1 -p cbr -e 230 -c 2 -a 0 -i 8 -k RTR
+ -t 21.870981274 -s 13 -d -1 -p cbr -e 210 -c 2 -a 0 -i 73 -k AGT 
- -t 21.870981274 -s 13 -d -1 -p cbr -e 210 -c 2 -a 0 -i 73 -k AGT
h -t 21.870981274 -s 13 -d -1 -p cbr -e 210 -c 2 -a 0 -i 73 -k AGT
d -t 21.870981274 -s 13 -d -1 -p cbr -e 230 -c 2 -a 0 -i 9 -k RTR
+ -t 21.882181274 -s 13 -d -1 -p cbr -e 210 -c 2 -a 0 -i 74 -k AGT 
- -t 21.882181274 -s 13 -d -1 -p cbr -e 210 -c 2 -a 0 -i 74 -k AGT
h -t 21.882181274 -s 13 -d -1 -p cbr -e 210 -c 2 -a 0 -i 74 -k AGT
d -t 21.882181274 -s 13 -d -1 -p cbr -e 230 -c 2 -a 0 -i 10 -k RTR
+ -t 21.893381274 -s 13 -d -1 -p cbr -e 210 -c 2 -a 0 -i 75 -k AGT 
- -t 21.893381274 -s 13 -d -1 -p cbr -e 210 -c 2 -a 0 -i 75 -k AGT
h -t 21.893381274 -s 13 -d -1 -p cbr -e 210 -c 2 -a 0 -i 75 -k AGT
d -t 21.893381274 -s 13 -d -1 -p cbr -e 230 -c 2 -a 0 -i 11 -k RTR
+ -t 21.904581274 -s 13 -d -1 -p cbr -e 210 -c 2 -a 0 -i 76 -k AGT 
- -t 21.904581274 -s 13 -d -1 -p cbr -e 210 -c 2 -a 0 -i 76 -k AGT
h -t 21.904581274 -s 13 -d -1 -p cbr -e 210 -c 2 -a 0 -i 76 -k AGT
d -t 21.904581274 -s 13 -d -1 -p cbr -e 230 -c 2 -a 0 -i 12 -k RTR
+ -t 21.915781274 -s 13 -d -1 -p cbr -e 210 -c 2 -a 0 -i 77 -k AGT 
- -t 21.915781274 -s 13 -d -1 -p cbr -e 210 -c 2 -a 0 -i 77 -k AGT
h -t 21.915781274 -s 13 -d -1 -p cbr -e 210 -c 2 -a 0 -i 77 -k AGT
d -t 21.915781274 -s 13 -d -1 -p cbr -e 230 -c 2 -a 0 -i 13 -k RTR
+ -t 21.926981274 -s 13 -d -1 -p cbr -e 210 -c 2 -a 0 -i 78 -k AGT 
- -t 21.926981274 -s 13 -d -1 -p cbr -e 210 -c 2 -a 0 -i 78 -k AGT
h -t 21.926981274 -s 13 -d -1 -p cbr -e 210 -c 2 -a 0 -i 78 -k AGT
d -t 21.926981274 -s 13 -d -1 -p cbr -e 230 -c 2 -a 0 -i 14 -k RTR
+ -t 21.938181274 -s 13 -d -1 -p cbr -e 210 -c 2 -a 0 -i 79 -k AGT 
- -t 21.938181274 -s 13 -d -1 -p cbr -e 210 -c 2 -a 0 -i 79 -k AGT
h -t 21.938181274 -s 13 -d -1 -p cbr -e 210 -c 2 -a 0 -i 79 -k AGT
d -t 21.938181274 -s 13 -d -1 -p cbr -e 230 -c 2 -a 0 -i 15 -k RTR
+ -t 21.949381274 -s 13 -d -1 -p cbr -e 210 -c 2 -a 0 -i 80 -k AGT 
- -t 21.949381274 -s 13 -d -1 -p cbr -e 210 -c 2 -a 0 -i 80 -k AGT
h -t 21.949381274 -s 13 -d -1 -p cbr -e 210 -c 2 -a 0 -i 80 -k AGT
d -t 21.949381274 -s 13 -d -1 -p cbr -e 230 -c 2 -a 0 -i 16 -k RTR
+ -t 21.960581274 -s 13 -d -1 -p cbr -e 210 -c 2 -a 0 -i 81 -k AGT 
- -t 21.960581274 -s 13 -d -1 -p cbr -e 210 -c 2 -a 0 -i 81 -k AGT
h -t 21.960581274 -s 13 -d -1 -p cbr -e 210 -c 2 -a 0 -i 81 -k AGT
d -t 21.960581274 -s 13 -d -1 -p cbr -e 230 -c 2 -a 0 -i 17 -k RTR
+ -t 21.971781274 -s 13 -d -1 -p cbr -e 210 -c 2 -a 0 -i 82 -k AGT 
- -t 21.971781274 -s 13 -d -1 -p cbr -e 210 -c 2 -a 0 -i 82 -k AGT
h -t 21.971781274 -s 13 -d -1 -p cbr -e 210 -c 2 -a 0 -i 82 -k AGT
d -t 21.971781274 -s 13 -d -1 -p cbr -e 230 -c 2 -a 0 -i 18 -k RTR
+ -t 21.982981274 -s 13 -d -1 -p cbr -e 210 -c 2 -a 0 -i 83 -k AGT 
- -t 21.982981274 -s 13 -d -1 -p cbr -e 210 -c 2 -a 0 -i 83 -k AGT
h -t 21.982981274 -s 13 -d -1 -p cbr -e 210 -c 2 -a 0 -i 83 -k AGT
d -t 21.982981274 -s 13 -d -1 -p cbr -e 230 -c 2 -a 0 -i 19 -k RTR
+ -t 21.994181274 -s 13 -d -1 -p cbr -e 210 -c 2 -a 0 -i 84 -k AGT 
- -t 21.994181274 -s 13 -d -1 -p cbr -e 210 -c 2 -a 0 -i 84 -k AGT
h -t 21.994181274 -s 13 -d -1 -p cbr -e 210 -c 2 -a 0 -i 84 -k AGT
d -t 21.994181274 -s 13 -d -1 -p cbr -e 230 -c 2 -a 0 -i 20 -k RTR
+ -t 22.005381274 -s 13 -d -1 -p cbr -e 210 -c 2 -a 0 -i 85 -k AGT 
- -t 22.005381274 -s 13 -d -1 -p cbr -e 210 -c 2 -a 0 -i 85 -k AGT
h -t 22.005381274 -s 13 -d -1 -p cbr -e 210 -c 2 -a 0 -i 85 -k AGT
d -t 22.005381274 -s 13 -d -1 -p cbr -e 230 -c 2 -a 0 -i 21 -k RTR
+ -t 22.016581274 -s 13 -d -1 -p cbr -e 210 -c 2 -a 0 -i 86 -k AGT 
- -t 22.016581274 -s 13 -d -1 -p cbr -e 210 -c 2 -a 0 -i 86 -k AGT
h -t 22.016581274 -s 13 -d -1 -p cbr -e 210 -c 2 -a 0 -i 86 -k AGT
d -t 22.016581274 -s 13 -d -1 -p cbr -e 230 -c 2 -a 0 -i 22 -k RTR
+ -t 22.027781274 -s 13 -d -1 -p cbr -e 210 -c 2 -a 0 -i 87 -k AGT 
- -t 22.027781274 -s 13 -d -1 -p cbr -e 210 -c 2 -a 0 -i 87 -k AGT
h -t 22.027781274 -s 13 -d -1 -p cbr -e 210 -c 2 -a 0 -i 87 -k AGT
d -t 22.027781274 -s 13 -d -1 -p cbr -e 230 -c 2 -a 0 -i 23 -k RTR
+ -t 22.038981274 -s 13 -d -1 -p cbr -e 210 -c 2 -a 0 -i 88 -k AGT 
- -t 22.038981274 -s 13 -d -1 -p cbr -e 210 -c 2 -a 0 -i 88 -k AGT
h -t 22.038981274 -s 13 -d -1 -p cbr -e 210 -c 2 -a 0 -i 88 -k AGT
d -t 22.038981274 -s 13 -d -1 -p cbr -e 230 -c 2 -a 0 -i 24 -k RTR
+ -t 22.050181274 -s 13 -d -1 -p cbr -e 210 -c 2 -a 0 -i 89 -k AGT 
- -t 22.050181274 -s 13 -d -1 -p cbr -e 210 -c 2 -a 0 -i 89 -k AGT
h -t 22.050181274 -s 13 -d -1 -p cbr -e 210 -c 2 -a 0 -i 89 -k AGT
d -t 22.050181274 -s 13 -d -1 -p cbr -e 230 -c 2 -a 0 -i 25 -k RTR
+ -t 22.061381274 -s 13 -d -1 -p cbr -e 210 -c 2 -a 0 -i 90 -k AGT 
- -t 22.061381274 -s 13 -d -1 -p cbr -e 210 -c 2 -a 0 -i 90 -k AGT
h -t 22.061381274 -s 13 -d -1 -p cbr -e 210 -c 2 -a 0 -i 90 -k AGT
d -t 22.061381274 -s 13 -d -1 -p cbr -e 230 -c 2 -a 0 -i 26 -k RTR
+ -t 22.072581274 -s 13 -d -1 -p cbr -e 210 -c 2 -a 0 -i 91 -k AGT 
- -t 22.072581274 -s 13 -d -1 -p cbr -e 210 -c 2 -a 0 -i 91 -k AGT
h -t 22.072581274 -s 13 -d -1 -p cbr -e 210 -c 2 -a 0 -i 91 -k AGT
d -t 22.072581274 -s 13 -d -1 -p cbr -e 230 -c 2 -a 0 -i 27 -k RTR
+ -t 22.083781274 -s 13 -d -1 -p cbr -e 210 -c 2 -a 0 -i 92 -k AGT 
- -t 22.083781274 -s 13 -d -1 -p cbr -e 210 -c 2 -a 0 -i 92 -k AGT
h -t 22.083781274 -s 13 -d -1 -p cbr -e 210 -c 2 -a 0 -i 92 -k AGT
d -t 22.083781274 -s 13 -d -1 -p cbr -e 230 -c 2 -a 0 -i 28 -k RTR
+ -t 22.094981274 -s 13 -d -1 -p cbr -e 210 -c 2 -a 0 -i 93 -k AGT 
- -t 22.094981274 -s 13 -d -1 -p cbr -e 210 -c 2 -a 0 -i 93 -k AGT
h -t 22.094981274 -s 13 -d -1 -p cbr -e 210 -c 2 -a 0 -i 93 -k AGT
d -t 22.094981274 -s 13 -d -1 -p cbr -e 230 -c 2 -a 0 -i 29 -k RTR
+ -t 22.106181274 -s 13 -d -1 -p cbr -e 210 -c 2 -a 0 -i 94 -k AGT 
- -t 22.106181274 -s 13 -d -1 -p cbr -e 210 -c 2 -a 0 -i 94 -k AGT
h -t 22.106181274 -s 13 -d -1 -p cbr -e 210 -c 2 -a 0 -i 94 -k AGT
d -t 22.106181274 -s 13 -d -1 -p cbr -e 230 -c 2 -a 0 -i 30 -k RTR
+ -t 22.117381274 -s 13 -d -1 -p cbr -e 210 -c 2 -a 0 -i 95 -k AGT 
- -t 22.117381274 -s 13 -d -1 -p cbr -e 210 -c 2 -a 0 -i 95 -k AGT
h -t 22.117381274 -s 13 -d -1 -p cbr -e 210 -c 2 -a 0 -i 95 -k AGT
d -t 22.117381274 -s 13 -d -1 -p cbr -e 230 -c 2 -a 0 -i 31 -k RTR
+ -t 22.128581274 -s 13 -d -1 -p cbr -e 210 -c 2 -a 0 -i 96 -k AGT 
- -t 22.128581274 -s 13 -d -1 -p cbr -e 210 -c 2 -a 0 -i 96 -k AGT
h -t 22.128581274 -s 13 -d -1 -p cbr -e 210 -c 2 -a 0 -i 96 -k AGT
d -t 22.128581274 -s 13 -d -1 -p cbr -e 230 -c 2 -a 0 -i 32 -k RTR
+ -t 22.139781274 -s 13 -d -1 -p cbr -e 210 -c 2 -a 0 -i 97 -k AGT 
- -t 22.139781274 -s 13 -d -1 -p cbr -e 210 -c 2 -a 0 -i 97 -k AGT
h -t 22.139781274 -s 13 -d -1 -p cbr -e 210 -c 2 -a 0 -i 97 -k AGT
d -t 22.139781274 -s 13 -d -1 -p cbr -e 230 -c 2 -a 0 -i 33 -k RTR
+ -t 22.150981274 -s 13 -d -1 -p cbr -e 210 -c 2 -a 0 -i 98 -k AGT 
- -t 22.150981274 -s 13 -d -1 -p cbr -e 210 -c 2 -a 0 -i 98 -k AGT
h -t 22.150981274 -s 13 -d -1 -p cbr -e 210 -c 2 -a 0 -i 98 -k AGT
d -t 22.150981274 -s 13 -d -1 -p cbr -e 230 -c 2 -a 0 -i 34 -k RTR
+ -t 22.162181274 -s 13 -d -1 -p cbr -e 210 -c 2 -a 0 -i 99 -k AGT 
- -t 22.162181274 -s 13 -d -1 -p cbr -e 210 -c 2 -a 0 -i 99 -k AGT
h -t 22.162181274 -s 13 -d -1 -p cbr -e 210 -c 2 -a 0 -i 99 -k AGT
d -t 22.162181274 -s 13 -d -1 -p cbr -e 230 -c 2 -a 0 -i 35 -k RTR
+ -t 22.173381274 -s 13 -d -1 -p cbr -e 210 -c 2 -a 0 -i 100 -k AGT 
- -t 22.173381274 -s 13 -d -1 -p cbr -e 210 -c 2 -a 0 -i 100 -k AGT
h -t 22.173381274 -s 13 -d -1 -p cbr -e 210 -c 2 -a 0 -i 100 -k AGT
d -t 22.173381274 -s 13 -d -1 -p cbr -e 230 -c 2 -a 0 -i 36 -k RTR
+ -t 22.184581274 -s 13 -d -1 -p cbr -e 210 -c 2 -a 0 -i 101 -k AGT 
- -t 22.184581274 -s 13 -d -1 -p cbr -e 210 -c 2 -a 0 -i 101 -k AGT
h -t 22.184581274 -s 13 -d -1 -p cbr -e 210 -c 2 -a 0 -i 101 -k AGT
d -t 22.184581274 -s 13 -d -1 -p cbr -e 230 -c 2 -a 0 -i 37 -k RTR
+ -t 22.195781274 -s 13 -d -1 -p cbr -e 210 -c 2 -a 0 -i 102 -k AGT 
- -t 22.195781274 -s 13 -d -1 -p cbr -e 210 -c 2 -a 0 -i 102 -k AGT
h -t 22.195781274 -s 13 -d -1 -p cbr -e 210 -c 2 -a 0 -i 102 -k AGT
d -t 22.195781274 -s 13 -d -1 -p cbr -e 230 -c 2 -a 0 -i 38 -k RTR
+ -t 22.206981274 -s 13 -d -1 -p cbr -e 210 -c 2 -a 0 -i 103 -k AGT 
- -t 22.206981274 -s 13 -d -1 -p cbr -e 210 -c 2 -a 0 -i 103 -k AGT
h -t 22.206981274 -s 13 -d -1 -p cbr -e 210 -c 2 -a 0 -i 103 -k AGT
d -t 22.206981274 -s 13 -d -1 -p cbr -e 230 -c 2 -a 0 -i 39 -k RTR
+ -t 22.218181274 -s 13 -d -1 -p cbr -e 210 -c 2 -a 0 -i 104 -k AGT 
- -t 22.218181274 -s 13 -d -1 -p cbr -e 210 -c 2 -a 0 -i 104 -k AGT
h -t 22.218181274 -s 13 -d -1 -p cbr -e 210 -c 2 -a 0 -i 104 -k AGT
d -t 22.218181274 -s 13 -d -1 -p cbr -e 230 -c 2 -a 0 -i 40 -k RTR
+ -t 22.229381274 -s 13 -d -1 -p cbr -e 210 -c 2 -a 0 -i 105 -k AGT 
- -t 22.229381274 -s 13 -d -1 -p cbr -e 210 -c 2 -a 0 -i 105 -k AGT
h -t 22.229381274 -s 13 -d -1 -p cbr -e 210 -c 2 -a 0 -i 105 -k AGT
d -t 22.229381274 -s 13 -d -1 -p cbr -e 230 -c 2 -a 0 -i 41 -k RTR
+ -t 22.240581274 -s 13 -d -1 -p cbr -e 210 -c 2 -a 0 -i 106 -k AGT 
- -t 22.240581274 -s 13 -d -1 -p cbr -e 210 -c 2 -a 0 -i 106 -k AGT
h -t 22.240581274 -s 13 -d -1 -p cbr -e 210 -c 2 -a 0 -i 106 -k AGT
d -t 22.240581274 -s 13 -d -1 -p cbr -e 230 -c 2 -a 0 -i 42 -k RTR
+ -t 22.251781274 -s 13 -d -1 -p cbr -e 210 -c 2 -a 0 -i 107 -k AGT 
- -t 22.251781274 -s 13 -d -1 -p cbr -e 210 -c 2 -a 0 -i 107 -k AGT
h -t 22.251781274 -s 13 -d -1 -p cbr -e 210 -c 2 -a 0 -i 107 -k AGT
d -t 22.251781274 -s 13 -d -1 -p cbr -e 230 -c 2 -a 0 -i 43 -k RTR
+ -t 22.262981274 -s 13 -d -1 -p cbr -e 210 -c 2 -a 0 -i 108 -k AGT 
- -t 22.262981274 -s 13 -d -1 -p cbr -e 210 -c 2 -a 0 -i 108 -k AGT
h -t 22.262981274 -s 13 -d -1 -p cbr -e 210 -c 2 -a 0 -i 108 -k AGT
d -t 22.262981274 -s 13 -d -1 -p cbr -e 230 -c 2 -a 0 -i 44 -k RTR
+ -t 22.274181274 -s 13 -d -1 -p cbr -e 210 -c 2 -a 0 -i 109 -k AGT 
- -t 22.274181274 -s 13 -d -1 -p cbr -e 210 -c 2 -a 0 -i 109 -k AGT
h -t 22.274181274 -s 13 -d -1 -p cbr -e 210 -c 2 -a 0 -i 109 -k AGT
d -t 22.274181274 -s 13 -d -1 -p cbr -e 230 -c 2 -a 0 -i 45 -k RTR
+ -t 22.285381274 -s 13 -d -1 -p cbr -e 210 -c 2 -a 0 -i 110 -k AGT 
- -t 22.285381274 -s 13 -d -1 -p cbr -e 210 -c 2 -a 0 -i 110 -k AGT
h -t 22.285381274 -s 13 -d -1 -p cbr -e 210 -c 2 -a 0 -i 110 -k AGT
d -t 22.285381274 -s 13 -d -1 -p cbr -e 230 -c 2 -a 0 -i 46 -k RTR
+ -t 22.296581274 -s 13 -d -1 -p cbr -e 210 -c 2 -a 0 -i 111 -k AGT 
- -t 22.296581274 -s 13 -d -1 -p cbr -e 210 -c 2 -a 0 -i 111 -k AGT
h -t 22.296581274 -s 13 -d -1 -p cbr -e 210 -c 2 -a 0 -i 111 -k AGT
d -t 22.296581274 -s 13 -d -1 -p cbr -e 230 -c 2 -a 0 -i 47 -k RTR
+ -t 22.307781274 -s 13 -d -1 -p cbr -e 210 -c 2 -a 0 -i 112 -k AGT 
- -t 22.307781274 -s 13 -d -1 -p cbr -e 210 -c 2 -a 0 -i 112 -k AGT
h -t 22.307781274 -s 13 -d -1 -p cbr -e 210 -c 2 -a 0 -i 112 -k AGT
d -t 22.307781274 -s 13 -d -1 -p cbr -e 230 -c 2 -a 0 -i 48 -k RTR
+ -t 22.318981274 -s 13 -d -1 -p cbr -e 210 -c 2 -a 0 -i 113 -k AGT 
- -t 22.318981274 -s 13 -d -1 -p cbr -e 210 -c 2 -a 0 -i 113 -k AGT
h -t 22.318981274 -s 13 -d -1 -p cbr -e 210 -c 2 -a 0 -i 113 -k AGT
d -t 22.318981274 -s 13 -d -1 -p cbr -e 230 -c 2 -a 0 -i 49 -k RTR
+ -t 22.330181274 -s 13 -d -1 -p cbr -e 210 -c 2 -a 0 -i 114 -k AGT 
- -t 22.330181274 -s 13 -d -1 -p cbr -e 210 -c 2 -a 0 -i 114 -k AGT
h -t 22.330181274 -s 13 -d -1 -p cbr -e 210 -c 2 -a 0 -i 114 -k AGT
d -t 22.330181274 -s 13 -d -1 -p cbr -e 230 -c 2 -a 0 -i 50 -k RTR
+ -t 22.341381274 -s 13 -d -1 -p cbr -e 210 -c 2 -a 0 -i 115 -k AGT 
- -t 22.341381274 -s 13 -d -1 -p cbr -e 210 -c 2 -a 0 -i 115 -k AGT
h -t 22.341381274 -s 13 -d -1 -p cbr -e 210 -c 2 -a 0 -i 115 -k AGT
d -t 22.341381274 -s 13 -d -1 -p cbr -e 230 -c 2 -a 0 -i 51 -k RTR
+ -t 22.352581274 -s 13 -d -1 -p cbr -e 210 -c 2 -a 0 -i 116 -k AGT 
- -t 22.352581274 -s 13 -d -1 -p cbr -e 210 -c 2 -a 0 -i 116 -k AGT
h -t 22.352581274 -s 13 -d -1 -p cbr -e 210 -c 2 -a 0 -i 116 -k AGT
d -t 22.352581274 -s 13 -d -1 -p cbr -e 230 -c 2 -a 0 -i 52 -k RTR
+ -t 22.363781274 -s 13 -d -1 -p cbr -e 210 -c 2 -a 0 -i 117 -k AGT 
- -t 22.363781274 -s 13 -d -1 -p cbr -e 210 -c 2 -a 0 -i 117 -k AGT
h -t 22.363781274 -s 13 -d -1 -p cbr -e 210 -c 2 -a 0 -i 117 -k AGT
d -t 22.363781274 -s 13 -d -1 -p cbr -e 230 -c 2 -a 0 -i 53 -k RTR
+ -t 22.374981274 -s 13 -d -1 -p cbr -e 210 -c 2 -a 0 -i 118 -k AGT 
- -t 22.374981274 -s 13 -d -1 -p cbr -e 210 -c 2 -a 0 -i 118 -k AGT
h -t 22.374981274 -s 13 -d -1 -p cbr -e 210 -c 2 -a 0 -i 118 -k AGT
d -t 22.374981274 -s 13 -d -1 -p cbr -e 230 -c 2 -a 0 -i 54 -k RTR
+ -t 22.386181274 -s 13 -d -1 -p cbr -e 210 -c 2 -a 0 -i 119 -k AGT 
- -t 22.386181274 -s 13 -d -1 -p cbr -e 210 -c 2 -a 0 -i 119 -k AGT
h -t 22.386181274 -s 13 -d -1 -p cbr -e 210 -c 2 -a 0 -i 119 -k AGT
d -t 22.386181274 -s 13 -d -1 -p cbr -e 230 -c 2 -a 0 -i 55 -k RTR
+ -t 22.397381274 -s 13 -d -1 -p cbr -e 210 -c 2 -a 0 -i 120 -k AGT 
- -t 22.397381274 -s 13 -d -1 -p cbr -e 210 -c 2 -a 0 -i 120 -k AGT
h -t 22.397381274 -s 13 -d -1 -p cbr -e 210 -c 2 -a 0 -i 120 -k AGT
d -t 22.397381274 -s 13 -d -1 -p cbr -e 230 -c 2 -a 0 -i 56 -k RTR
+ -t 22.408581274 -s 13 -d -1 -p cbr -e 210 -c 2 -a 0 -i 121 -k AGT 
- -t 22.408581274 -s 13 -d -1 -p cbr -e 210 -c 2 -a 0 -i 121 -k AGT