s 5.619949710 _13_ AGT  --- 1 0 cbr 210 [0 0 0 0] ------- [13:0 21:0 32 0] [0] 0 0
s 5.653549710 _13_ AGT  --- 1 1 cbr 210 [0 0 0 0] ------- [13:0 21:0 32 0] [1] 0 0
s 5.687149710 _13_ AGT  --- 1 2 cbr 210 [0 0 0 0] ------- [13:0 21:0 32 0] [2] 0 0
s 5.720749710 _13_ AGT  --- 1 3 cbr 210 [0 0 0 0] ------- [13:0 21:0 32 0] [3] 0 0
s 5.754349710 _13_ AGT  --- 1 4 cbr 210 [0 0 0 0] ------- [13:0 21:0 32 0] [4] 0 0
s 5.787949710 _13_ AGT  --- 1 5 cbr 210 [0 0 0 0] ------- [13:0 21:0 32 0] [5] 0 0
s 5.821549710 _13_ AGT  --- 1 6 cbr 210 [0 0 0 0] ------- [13:0 21:0 32 0] [6] 0 0
s 5.855149710 _13_ AGT  --- 1 7 cbr 210 [0 0 0 0] ------- [13:0 21:0 32 0] [7] 0 0
s 5.888749710 _13_ AGT  --- 1 8 cbr 210 [0 0 0 0] ------- [13:0 21:0 32 0] [8] 0 0
s 5.922349710 _13_ AGT  --- 1 9 cbr 210 [0 0 0 0] ------- [13:0 21:0 32 0] [9] 0 0
s 5.955949710 _13_ AGT  --- 1 10 cbr 210 [0 0 0 0] ------- [13:0 21:0 32 0] [10] 0 0
s 5.989549710 _13_ AGT  --- 1 11 cbr 210 [0 0 0 0] ------- [13:0 21:0 32 0] [11] 0 0
s 6.023149710 _13_ AGT  --- 1 12 cbr 210 [0 0 0 0] ------- [13:0 21:0 32 0] [12] 0 0
s 6.056749710 _13_ AGT  --- 1 13 cbr 210 [0 0 0 0] ------- [13:0 21:0 32 0] [13] 0 0
s 6.090349710 _13_ AGT  --- 1 14 cbr 210 [0 0 0 0] ------- [13:0 21:0 32 0] [14] 0 0
s 6.123949710 _13_ AGT  --- 1 15 cbr 210 [0 0 0 0] ------- [13:0 21:0 32 0] [15] 0 0
s 6.157549710 _13_ AGT  --- 1 16 cbr 210 [0 0 0 0] ------- [13:0 21:0 32 0] [16] 0 0
s 6.191149710 _13_ AGT  --- 1 17 cbr 210 [0 0 0 0] ------- [13:0 21:0 32 0] [17] 0 0
r 6.211153667 _21_ AGT  --- 1 0 cbr 230 [5 15 10 0] ------- [13:0 21:0 27 21] [0] 4 0
s 6.224749710 _13_ AGT  --- 1 18 cbr 210 [0 0 0 0] ------- [13:0 21:0 32 0] [18] 0 0
s 6.258349710 _13_ AGT  --- 1 19 cbr 210 [0 0 0 0] ------- [13:0 21:0 32 0] [19] 0 0
r 6.271153667 _21_ AGT  --- 1 2 cbr 230 [5 15 10 0] ------- [13:0 21:0 27 21] [2] 4 0
s 6.291949710 _13_ AGT  --- 1 20 cbr 210 [0 0 0 0] ------- [13:0 21:0 32 0] [20] 0 0
s 6.325549710 _13_ AGT  --- 1 21 cbr 210 [0 0 0 0] ------- [13:0 21:0 32 0] [21] 0 0
r 6.331153667 _21_ AGT  --- 1 3 cbr 230 [5 15 10 0] ------- [13:0 21:0 27 21] [3] 4 0
s 6.359149710 _13_ AGT  --- 1 22 cbr 210 [0 0 0 0] ------- [13:0 21:0 32 0] [22] 0 0
r 6.391153667 _21_ AGT  --- 1 5 cbr 230 [5 15 10 0] ------- [13:0 21:0 27 21] [5] 4 0
s 6.392749710 _13_ AGT  --- 1 23 cbr 210 [0 0 0 0] ------- [13:0 21:0 32 0] [23] 0 0
s 6.426349710 _13_ AGT  --- 1 24 cbr 210 [0 0 0 0] ------- [13:0 21:0 32 0] [24] 0 0
r 6.451153667 _21_ AGT  --- 1 18 cbr 230 [5 15 10 0] ------- [13:0 21:0 27 21] [18] 4 0
s 6.459949710 _13_ AGT  --- 1 25 cbr 210 [0 0 0 0] ------- [13:0 21:0 32 0] [25] 0 0
s 6.493549710 _13_ AGT  --- 1 26 cbr 210 [0 0 0 0] ------- [13:0 21:0 32 0] [26] 0 0
r 6.511153667 _21_ AGT  --- 1 8 cbr 230 [5 15 10 0] ------- [13:0 21:0 27 21] [8] 4 0
s 6.527149710 _13_ AGT  --- 1 27 cbr 210 [0 0 0 0] ------- [13:0 21:0 32 0] [27] 0 0
s 6.560749710 _13_ AGT  --- 1 28 cbr 210 [0 0 0 0] ------- [13:0 21:0 32 0] [28] 0 0
r 6.571153667 _21_ AGT  --- 1 19 cbr 230 [5 15 10 0] ------- [13:0 21:0 27 21] [19] 4 0
s 6.594349710 _13_ AGT  --- 1 29 cbr 210 [0 0 0 0] ------- [13:0 21:0 32 0] [29] 0 0
s 6.627949710 _13_ AGT  --- 1 30 cbr 210 [0 0 0 0] ------- [13:0 21:0 32 0] [30] 0 0
r 6.631153667 _21_ AGT  --- 1 11 cbr 230 [5 15 10 0] ------- [13:0 21:0 27 21] [11] 4 0
s 6.661549710 _13_ AGT  --- 1 31 cbr 210 [0 0 0 0] ------- [13:0 21:0 32 0] [31] 0 0
r 6.691153667 _21_ AGT  --- 1 20 cbr 230 [5 15 10 0] ------- [13:0 21:0 27 21] [20] 4 0
s 6.695149710 _13_ AGT  --- 1 32 cbr 210 [0 0 0 0] ------- [13:0 21:0 32 0] [32] 0 0
s 6.728749710 _13_ AGT  --- 1 33 cbr 210 [0 0 0 0] ------- [13:0 21:0 32 0] [33] 0 0
r 6.751153667 _21_ AGT  --- 1 14 cbr 230 [5 15 10 0] ------- [13:0 21:0 27 21] [14] 4 0
s 6.762349710 _13_ AGT  --- 1 34 cbr 210 [0 0 0 0] ------- [13:0 21:0 32 0] [34] 0 0
s 6.795949710 _13_ AGT  --- 1 35 cbr 210 [0 0 0 0] ------- [13:0 21:0 32 0] [35] 0 0
r 6.811153667 _21_ AGT  --- 1 16 cbr 230 [5 15 10 0] ------- [13:0 21:0 27 21] [16] 4 0
s 6.829549710 _13_ AGT  --- 1 36 cbr 210 [0 0 0 0] ------- [13:0 21:0 32 0] [36] 0 0
s 6.863149710 _13_ AGT  --- 1 37 cbr 210 [0 0 0 0] ------- [13:0 21:0 32 0] [37] 0 0
r 6.871153667 _21_ AGT  --- 1 22 cbr 230 [5 15 10 0] ------- [13:0 21:0 27 21] [22] 4 0
s 6.896749710 _13_ AGT  --- 1 38 cbr 210 [0 0 0 0] ------- [13:0 21:0 32 0] [38] 0 0
s 6.930349710 _13_ AGT  --- 1 39 cbr 210 [0 0 0 0] ------- [13:0 21:0 32 0] [39] 0 0
r 6.931153667 _21_ AGT  --- 1 24 cbr 230 [5 15 10 0] ------- [13:0 21:0 27 21] [24] 4 0
s 6.963949710 _13_ AGT  --- 1 40 cbr 210 [0 0 0 0] ------- [13:0 21:0 32 0] [40] 0 0
r 6.991153667 _21_ AGT  --- 1 26 cbr 230 [5 15 10 0] ------- [13:0 21:0 27 21] [26] 4 0
s 6.997549710 _13_ AGT  --- 1 41 cbr 210 [0 0 0 0] ------- [13:0 21:0 32 0] [41] 0 0
s 7.031149710 _13_ AGT  --- 1 42 cbr 210 [0 0 0 0] ------- [13:0 21:0 32 0] [42] 0 0
r 7.051153667 _21_ AGT  --- 1 28 cbr 230 [5 15 10 0] ------- [13:0 21:0 27 21] [28] 4 0
s 7.064749710 _13_ AGT  --- 1 43 cbr 210 [0 0 0 0] ------- [13:0 21:0 32 0] [43] 0 0
s 7.098349710 _13_ AGT  --- 1 44 cbr 210 [0 0 0 0] ------- [13:0 21:0 32 0] [44] 0 0
r 7.111153667 _21_ AGT  --- 1 30 cbr 230 [5 15 10 0] ------- [13:0 21:0 27 21] [30] 4 0
s 7.131949710 _13_ AGT  --- 1 45 cbr 210 [0 0 0 0] ------- [13:0 21:0 32 0] [45] 0 0
s 7.165549710 _13_ AGT  --- 1 46 cbr 210 [0 0 0 0] ------- [13:0 21:0 32 0] [46] 0 0
r 7.171153667 _21_ AGT  --- 1 32 cbr 230 [5 15 10 0] ------- [13:0 21:0 27 21] [32] 4 0
s 7.199149710 _13_ AGT  --- 1 47 cbr 210 [0 0 0 0] ------- [13:0 21:0 32 0] [47] 0 0
r 7.231153667 _21_ AGT  --- 1 34 cbr 230 [5 15 10 0] ------- [13:0 21:0 27 21] [34] 4 0
s 7.232749710 _13_ AGT  --- 1 48 cbr 210 [0 0 0 0] ------- [13:0 21:0 32 0] [48] 0 0
s 7.266349710 _13_ AGT  --- 1 49 cbr 210 [0 0 0 0] ------- [13:0 21:0 32 0] [49] 0 0
r 7.291153667 _21_ AGT  --- 1 36 cbr 230 [5 15 10 0] ------- [13:0 21:0 27 21] [36] 4 0
s 7.299949710 _13_ AGT  --- 1 50 cbr 210 [0 0 0 0] ------- [13:0 21:0 32 0] [50] 0 0
s 7.333549710 _13_ AGT  --- 1 51 cbr 210 [0 0 0 0] ------- [13:0 21:0 32 0] [51] 0 0
r 7.351153667 _21_ AGT  --- 1 38 cbr 230 [5 15 10 0] ------- [13:0 21:0 27 21] [38] 4 0
s 7.367149710 _13_ AGT  --- 1 52 cbr 210 [0 0 0 0] ------- [13:0 21:0 32 0] [52] 0 0
s 7.400749710 _13_ AGT  --- 1 53 cbr 210 [0 0 0 0] ------- [13:0 21:0 32 0] [53] 0 0
r 7.411153667 _21_ AGT  --- 1 40 cbr 230 [5 15 10 0] ------- [13:0 21:0 27 21] [40] 4 0
s 7.434349710 _13_ AGT  --- 1 54 cbr 210 [0 0 0 0] ------- [13:0 21:0 32 0] [54] 0 0
s 7.467949710 _13_ AGT  --- 1 55 cbr 210 [0 0 0 0] ------- [13:0 21:0 32 0] [55] 0 0
r 7.471153667 _21_ AGT  --- 1 42 cbr 230 [5 15 10 0] ------- [13:0 21:0 27 21] [42] 4 0
s 7.501549710 _13_ AGT  --- 1 56 cbr 210 [0 0 0 0] ------- [13:0 21:0 32 0] [56] 0 0
r 7.531153667 _21_ AGT  --- 1 44 cbr 230 [5 15 10 0] ------- [13:0 21:0 27 21] [44] 4 0
s 7.535149710 _13_ AGT  --- 1 57 cbr 210 [0 0 0 0] ------- [13:0 21:0 32 0] [57] 0 0
s 7.568749710 _13_ AGT  --- 1 58 cbr 210 [0 0 0 0] ------- [13:0 21:0 32 0] [58] 0 0
r 7.591153667 _21_ AGT  --- 1 46 cbr 230 [5 15 10 0] ------- [13:0 21:0 27 21] [46] 4 0
s 7.602349710 _13_ AGT  --- 1 59 cbr 210 [0 0 0 0] ------- [13:0 21:0 32 0] [59] 0 0
s 7.635949710 _13_ AGT  --- 1 60 cbr 210 [0 0 0 0] ------- [13:0 21:0 32 0] [60] 0 0
r 7.651153667 _21_ AGT  --- 1 48 cbr 230 [5 15 10 0] ------- [13:0 21:0 27 21] [48] 4 0
s 7.669549710 _13_ AGT  --- 1 61 cbr 210 [0 0 0 0] ------- [13:0 21:0 32 0] [61] 0 0
s 7.703149710 _13_ AGT  --- 1 62 cbr 210 [0 0 0 0] ------- [13:0 21:0 32 0] [62] 0 0
r 7.711153667 _21_ AGT  --- 1 50 cbr 230 [5 15 10 0] ------- [13:0 21:0 27 21] [50] 4 0
s 7.736749710 _13_ AGT  --- 1 63 cbr 210 [0 0 0 0] ------- [13:0 21:0 32 0] [63] 0 0
s 7.770349710 _13_ AGT  --- 1 64 cbr 210 [0 0 0 0] ------- [13:0 21:0 32 0] [64] 0 0
r 7.771153667 _21_ AGT  --- 1 52 cbr 230 [5 15 10 0] ------- [13:0 21:0 27 21] [52] 4 0
s 7.803949710 _13_ AGT  --- 1 65 cbr 210 [0 0 0 0] ------- [13:0 21:0 32 0] [65] 0 0
r 7.831153667 _21_ AGT  --- 1 54 cbr 230 [5 15 10 0] ------- [13:0 21:0 27 21] [54] 4 0
s 7.837549710 _13_ AGT  --- 1 66 cbr 210 [0 0 0 0] ------- [13:0 21:0 32 0] [66] 0 0
s 7.871149710 _13_ AGT  --- 1 67 cbr 210 [0 0 0 0] ------- [13:0 21:0 32 0] [67] 0 0
r 7.891153667 _21_ AGT  --- 1 56 cbr 230 [5 15 10 0] ------- [13:0 21:0 27 21] [56] 4 0
s 7.904749710 _13_ AGT  --- 1 68 cbr 210 [0 0 0 0] ------- [13:0 21:0 32 0] [68] 0 0
s 7.938349710 _13_ AGT  --- 1 69 cbr 210 [0 0 0 0] ------- [13:0 21:0 32 0] [69] 0 0
r 7.951153667 _21_ AGT  --- 1 58 cbr 230 [5 15 10 0] ------- [13:0 21:0 27 21] [58] 4 0
s 7.971949710 _13_ AGT  --- 1 70 cbr 210 [0 0 0 0] ------- [13:0 21:0 32 0] [70] 0 0
s 8.005549710 _13_ AGT  --- 1 71 cbr 210 [0 0 0 0] ------- [13:0 21:0 32 0] [71] 0 0
r 8.011153667 _21_ AGT  --- 1 60 cbr 230 [5 15 10 0] ------- [13:0 21:0 27 21] [60] 4 0
s 8.039149710 _13_ AGT  --- 1 72 cbr 210 [0 0 0 0] ------- [13:0 21:0 32 0] [72] 0 0
r 8.071153667 _21_ AGT  --- 1 62 cbr 230 [5 15 10 0] ------- [13:0 21:0 27 21] [62] 4 0
s 8.072749710 _13_ AGT  --- 1 73 cbr 210 [0 0 0 0] ------- [13:0 21:0 32 0] [73] 0 0
s 8.106349710 _13_ AGT  --- 1 74 cbr 210 [0 0 0 0] ------- [13:0 21:0 32 0] [74] 0 0
r 8.131153667 _21_ AGT  --- 1 64 cbr 230 [5 15 10 0] ------- [13:0 21:0 27 21] [64] 4 0
s 8.139949710 _13_ AGT  --- 1 75 cbr 210 [0 0 0 0] ------- [13:0 21:0 32 0] [75] 0 0
s 8.173549710 _13_ AGT  --- 1 76 cbr 210 [0 0 0 0] ------- [13:0 21:0 32 0] [76] 0 0
r 8.191153667 _21_ AGT  --- 1 66 cbr 230 [5 15 10 0] ------- [13:0 21:0 27 21] [66] 4 0
s 8.207149710 _13_ AGT  --- 1 77 cbr 210 [0 0 0 0] ------- [13:0 21:0 32 0] [77] 0 0
s 8.240749710 _13_ AGT  --- 1 78 cbr 210 [0 0 0 0] ------- [13:0 21:0 32 0] [78] 0 0
r 8.251153667 _21_ AGT  --- 1 68 cbr 230 [5 15 10 0] ------- [13:0 21:0 27 21] [68] 4 0
s 8.274349710 _13_ AGT  --- 1 79 cbr 210 [0 0 0 0] ------- [13:0 21:0 32 0] [79] 0 0
s 8.307949710 _13_ AGT  --- 1 80 cbr 210 [0 0 0 0] ------- [13:0 21:0 32 0] [80] 0 0
r 8.311153667 _21_ AGT  --- 1 70 cbr 230 [5 15 10 0] ------- [13:0 21:0 27 21] [70] 4 0
s 8.341549710 _13_ AGT  --- 1 81 cbr 210 [0 0 0 0] ------- [13:0 21:0 32 0] [81] 0 0
r 8.371153667 _21_ AGT  --- 1 72 cbr 230 [5 15 10 0] ------- [13:0 21:0 27 21] [72] 4 0
s 8.375149710 _13_ AGT  --- 1 82 cbr 210 [0 0 0 0] ------- [13:0 21:0 32 0] [82] 0 0
s 8.408749710 _13_ AGT  --- 1 83 cbr 210 [0 0 0 0] ------- [13:0 21:0 32 0] [83] 0 0
r 8.431153667 _21_ AGT  --- 1 74 cbr 230 [5 15 10 0] ------- [13:0 21:0 27 21] [74] 4 0
s 8.442349710 _13_ AGT  --- 1 84 cbr 210 [0 0 0 0] ------- [13:0 21:0 32 0] [84] 0 0
s 8.475949710 _13_ AGT  --- 1 85 cbr 210 [0 0 0 0] ------- [13:0 21:0 32 0] [85] 0 0
r 8.491153667 _21_ AGT  --- 1 76 cbr 230 [5 15 10 0] ------- [13:0 21:0 27 21] [76] 4 0
s 8.509549710 _13_ AGT  --- 1 86 cbr 210 [0 0 0 0] ------- [13:0 21:0 32 0] [86] 0 0
s 8.543149710 _13_ AGT  --- 1 87 cbr 210 [0 0 0 0] ------- [13:0 21:0 32 0] [87] 0 0
s 8.576749710 _13_ AGT  --- 1 88 cbr 210 [0 0 0 0] ------- [13:0 21:0 32 0] [88] 0 0
r 8.581153667 _21_ AGT  --- 1 78 cbr 230 [5 15 10 0] ------- [13:0 21:0 27 21] [78] 4 0
s 8.610349710 _13_ AGT  --- 1 89 cbr 210 [0 0 0 0] ------- [13:0 21:0 32 0] [89] 0 0
r 8.611153667 _21_ AGT  --- 1 80 cbr 230 [5 15 10 0] ------- [13:0 21:0 27 21] [80] 4 0
s 8.643949710 _13_ AGT  --- 1 90 cbr 210 [0 0 0 0] ------- [13:0 21:0 32 0] [90] 0 0
r 8.671153667 _21_ AGT  --- 1 82 cbr 230 [5 15 10 0] ------- [13:0 21:0 27 21] [82] 4 0
s 8.677549710 _13_ AGT  --- 1 91 cbr 210 [0 0 0 0] ------- [13:0 21:0 32 0] [91] 0 0
s 8.711149710 _13_ AGT  --- 1 92 cbr 210 [0 0 0 0] ------- [13:0 21:0 32 0] [92] 0 0
r 8.731153667 _21_ AGT  --- 1 84 cbr 230 [5 15 10 0] ------- [13:0 21:0 27 21] [84] 4 0
s 8.744749710 _13_ AGT  --- 1 93 cbr 210 [0 0 0 0] ------- [13:0 21:0 32 0] [93] 0 0
s 8.778349710 _13_ AGT  --- 1 94 cbr 210 [0 0 0 0] ------- [13:0 21:0 32 0] [94] 0 0
r 8.791153667 _21_ AGT  --- 1 86 cbr 230 [5 15 10 0] ------- [13:0 21:0 27 21] [86] 4 0
s 8.811949710 _13_ AGT  --- 1 95 cbr 210 [0 0 0 0] ------- [13:0 21:0 32 0] [95] 0 0
s 8.845549710 _13_ AGT  --- 1 96 cbr 210 [0 0 0 0] ------- [13:0 21:0 32 0] [96] 0 0
r 8.851153667 _21_ AGT  --- 1 88 cbr 230 [5 15 10 0] ------- [13:0 21:0 27 21] [88] 4 0
s 8.879149710 _13_ AGT  --- 1 97 cbr 210 [0 0 0 0] ------- [13:0 21:0 32 0] [97] 0 0
r 8.911153667 _21_ AGT  --- 1 90 cbr 230 [5 15 10 0] ------- [13:0 21:0 27 21] [90] 4 0
s 8.912749710 _13_ AGT  --- 1 98 cbr 210 [0 0 0 0] ------- [13:0 21:0 32 0] [98] 0 0
s 8.946349710 _13_ AGT  --- 1 99 cbr 210 [0 0 0 0] ------- [13:0 21:0 32 0] [99] 0 0
r 8.971153667 _21_ AGT  --- 1 92 cbr 230 [5 15 10 0] ------- [13:0 21:0 27 21] [92] 4 0
s 8.979949710 _13_ AGT  --- 1 100 cbr 210 [0 0 0 0] ------- [13:0 21:0 32 0] [100] 0 0
s 9.013549710 _13_ AGT  --- 1 101 cbr 210 [0 0 0 0] ------- [13:0 21:0 32 0] [101] 0 0
r 9.031153667 _21_ AGT  --- 1 94 cbr 230 [5 15 10 0] ------- [13:0 21:0 27 21] [94] 4 0
s 9.047149710 _13_ AGT  --- 1 102 cbr 210 [0 0 0 0] ------- [13:0 21:0 32 0] [102] 0 0
s 9.080749710 _13_ AGT  --- 1 103 cbr 210 [0 0 0 0] ------- [13:0 21:0 32 0] [103] 0 0
r 9.091153667 _21_ AGT  --- 1 96 cbr 230 [5 15 10 0] ------- [13:0 21:0 27 21] [96] 4 0
s 9.114349710 _13_ AGT  --- 1 104 cbr 210 [0 0 0 0] ------- [13:0 21:0 32 0] [104] 0 0
s 9.147949710 _13_ AGT  --- 1 105 cbr 210 [0 0 0 0] ------- [13:0 21:0 32 0] [105] 0 0
r 9.151153667 _21_ AGT  --- 1 98 cbr 230 [5 15 10 0] ------- [13:0 21:0 27 21] [98] 4 0
s 9.181549710 _13_ AGT  --- 1 106 cbr 210 [0 0 0 0] ------- [13:0 21:0 32 0] [106] 0 0
r 9.211153667 _21_ AGT  --- 1 100 cbr 230 [5 15 10 0] ------- [13:0 21:0 27 21] [100] 4 0
s 9.215149710 _13_ AGT  --- 1 107 cbr 210 [0 0 0 0] ------- [13:0 21:0 32 0] [107] 0 0
s 9.248749710 _13_ AGT  --- 1 108 cbr 210 [0 0 0 0] ------- [13:0 21:0 32 0] [108] 0 0
r 9.271153667 _21_ AGT  --- 1 102 cbr 230 [5 15 10 0] ------- [13:0 21:0 27 21] [102] 4 0
s 9.282349710 _13_ AGT  --- 1 109 cbr 210 [0 0 0 0] ------- [13:0 21:0 32 0] [109] 0 0
s 9.315949710 _13_ AGT  --- 1 110 cbr 210 [0 0 0 0] ------- [13:0 21:0 32 0] [110] 0 0
r 9.331153667 _21_ AGT  --- 1 104 cbr 230 [5 15 10 0] ------- [13:0 21:0 27 21] [104] 4 0
s 9.349549710 _13_ AGT  --- 1 111 cbr 210 [0 0 0 0] ------- [13:0 21:0 32 0] [111] 0 0
s 9.383149710 _13_ AGT  --- 1 112 cbr 210 [0 0 0 0] ------- [13:0 21:0 32 0] [112] 0 0
r 9.391153667 _21_ AGT  --- 1 106 cbr 230 [5 15 10 0] ------- [13:0 21:0 27 21] [106] 4 0
s 9.416749710 _13_ AGT  --- 1 113 cbr 210 [0 0 0 0] ------- [13:0 21:0 32 0] [113] 0 0
s 9.450349710 _13_ AGT  --- 1 114 cbr 210 [0 0 0 0] ------- [13:0 21:0 32 0] [114] 0 0
r 9.451153667 _21_ AGT  --- 1 108 cbr 230 [5 15 10 0] ------- [13:0 21:0 27 21] [108] 4 0
s 9.483949710 _13_ AGT  --- 1 115 cbr 210 [0 0 0 0] ------- [13:0 21:0 32 0] [115] 0 0
r 9.511153667 _21_ AGT  --- 1 110 cbr 230 [5 15 10 0] ------- [13:0 21:0 27 21] [110] 4 0
s 9.517549710 _13_ AGT  --- 1 116 cbr 210 [0 0 0 0] ------- [13:0 21:0 32 0] [116] 0 0
s 9.551149710 _13_ AGT  --- 1 117 cbr 210 [0 0 0 0] ------- [13:0 21:0 32 0] [117] 0 0
r 9.571153667 _21_ AGT  --- 1 112 cbr 230 [5 15 10 0] ------- [13:0 21:0 27 21] [112] 4 0
s 9.584749710 _13_ AGT  --- 1 118 cbr 210 [0 0 0 0] ------- [13:0 21:0 32 0] [118] 0 0
s 9.618349710 _13_ AGT  --- 1 119 cbr 210 [0 0 0 0] ------- [13:0 21:0 32 0] [119] 0 0
r 9.631153667 _21_ AGT  --- 1 114 cbr 230 [5 15 10 0] ------- [13:0 21:0 27 21] [114] 4 0
s 9.651949710 _13_ AGT  --- 1 120 cbr 210 [0 0 0 0] ------- [13:0 21:0 32 0] [120] 0 0
s 9.685549710 _13_ AGT  --- 1 121 cbr 210 [0 0 0 0] ------- [13:0 21:0 32 0] [121] 0 0
r 9.691153667 _21_ AGT  --- 1 116 cbr 230 [5 15 10 0] ------- [13:0 21:0 27 21] [116] 4 0
s 9.719149710 _13_ AGT  --- 1 122 cbr 210 [0 0 0 0] ------- [13:0 21:0 32 0] [122] 0 0
s 9.752749710 _13_ AGT  --- 1 123 cbr 210 [0 0 0 0] ------- [13:0 21:0 32 0] [123] 0 0
r 9.781153667 _21_ AGT  --- 1 118 cbr 230 [5 15 10 0] ------- [13:0 21:0 27 21] [118] 4 0
s 9.786349710 _13_ AGT  --- 1 124 cbr 210 [0 0 0 0] ------- [13:0 21:0 32 0] [124] 0 0
r 9.811153667 _21_ AGT  --- 1 120 cbr 230 [5 15 10 0] ------- [13:0 21:0 27 21] [120] 4 0
s 9.819949710 _13_ AGT  --- 1 125 cbr 210 [0 0 0 0] ------- [13:0 21:0 32 0] [125] 0 0
s 9.853549710 _13_ AGT  --- 1 126 cbr 210 [0 0 0 0] ------- [13:0 21:0 32 0] [126] 0 0
r 9.871153667 _21_ AGT  --- 1 122 cbr 230 [5 15 10 0] ------- [13:0 21:0 27 21] [122] 4 0
s 9.887149710 _13_ AGT  --- 1 127 cbr 210 [0 0 0 0] ------- [13:0 21:0 32 0] [127] 0 0
s 9.920749710 _13_ AGT  --- 1 128 cbr 210 [0 0 0 0] ------- [13:0 21:0 32 0] [128] 0 0
r 9.931153667 _21_ AGT  --- 1 124 cbr 230 [5 15 10 0] ------- [13:0 21:0 27 21] [124] 4 0
s 9.954349710 _13_ AGT  --- 1 129 cbr 210 [0 0 0 0] ------- [13:0 21:0 32 0] [129] 0 0
s 9.987949710 _13_ AGT  --- 1 130 cbr 210 [0 0 0 0] ------- [13:0 21:0 32 0] [130] 0 0
r 9.991153667 _21_ AGT  --- 1 126 cbr 230 [5 15 10 0] ------- [13:0 21:0 27 21] [126] 4 0
s 10.021549710 _13_ AGT  --- 1 131 cbr 210 [0 0 0 0] ------- [13:0 21:0 32 0] [131] 0 0
r 10.051153667 _21_ AGT  --- 1 128 cbr 230 [5 15 10 0] ------- [13:0 21:0 27 21] [128] 4 0
s 10.055149710 _13_ AGT  --- 1 132 cbr 210 [0 0 0 0] ------- [13:0 21:0 32 0] [132] 0 0
s 10.088749710 _13_ AGT  --- 1 133 cbr 210 [0 0 0 0] ------- [13:0 21:0 32 0] [133] 0 0
r 10.111153667 _21_ AGT  --- 1 130 cbr 230 [5 15 10 0] ------- [13:0 21:0 27 21] [130] 4 0
s 10.122349710 _13_ AGT  --- 1 134 cbr 210 [0 0 0 0] ------- [13:0 21:0 32 0] [134] 0 0
s 10.155949710 _13_ AGT  --- 1 135 cbr 210 [0 0 0 0] ------- [13:0 21:0 32 0] [135] 0 0
r 10.171153667 _21_ AGT  --- 1 132 cbr 230 [5 15 10 0] ------- [13:0 21:0 27 21] [132] 4 0
s 10.189549710 _13_ AGT  --- 1 136 cbr 210 [0 0 0 0] ------- [13:0 21:0 32 0] [136] 0 0
s 10.223149710 _13_ AGT  --- 1 137 cbr 210 [0 0 0 0] ------- [13:0 21:0 32 0] [137] 0 0
r 10.231153667 _21_ AGT  --- 1 134 cbr 230 [5 15 10 0] ------- [13:0 21:0 27 21] [134] 4 0
s 10.256749710 _13_ AGT  --- 1 138 cbr 210 [0 0 0 0] ------- [13:0 21:0 32 0] [138] 0 0
s 10.290349710 _13_ AGT  --- 1 139 cbr 210 [0 0 0 0] ------- [13:0 21:0 32 0] [139] 0 0
r 10.291153667 _21_ AGT  --- 1 136 cbr 230 [5 15 10 0] ------- [13:0 21:0 27 21] [136] 4 0
s 10.323949710 _13_ AGT  --- 1 140 cbr 210 [0 0 0 0] ------- [13:0 21:0 32 0] [140] 0 0
r 10.351153667 _21_ AGT  --- 1 138 cbr 230 [5 15 10 0] ------- [13:0 21:0 27 21] [138] 4 0
s 10.357549710 _13_ AGT  --- 1 141 cbr 210 [0 0 0 0] ------- [13:0 21:0 32 0] [141] 0 0
s 10.391149710 _13_ AGT  --- 1 142 cbr 210 [0 0 0 0] ------- [13:0 21:0 32 0] [142] 0 0
r 10.411153667 _21_ AGT  --- 1 140 cbr 230 [5 15 10 0] ------- [13:0 21:0 27 21] [140] 4 0
s 10.424749710 _13_ AGT  --- 1 143 cbr 210 [0 0 0 0] ------- [13:0 21:0 32 0] [143] 0 0
s 10.458349710 _13_ AGT  --- 1 144 cbr 210 [0 0 0 0] ------- [13:0 21:0 32 0] [144] 0 0
r 10.471153667 _21_ AGT  --- 1 142 cbr 230 [5 15 10 0] ------- [13:0 21:0 27 21] [142] 4 0
s 10.491949710 _13_ AGT  --- 1 145 cbr 210 [0 0 0 0] ------- [13:0 21:0 32 0] [145] 0 0
s 10.525549710 _13_ AGT  --- 1 146 cbr 210 [0 0 0 0] ------- [13:0 21:0 32 0] [146] 0 0
r 10.531153667 _21_ AGT  --- 1 144 cbr 230 [5 15 10 0] ------- [13:0 21:0 27 21] [144] 4 0
s 10.559149710 _13_ AGT  --- 1 147 cbr 210 [0 0 0 0] ------- [13:0 21:0 32 0] [147] 0 0
r 10.591153667 _21_ AGT  --- 1 146 cbr 230 [5 15 10 0] ------- [13:0 21:0 27 21] [146] 4 0
s 10.592749710 _13_ AGT  --- 1 148 cbr 210 [0 0 0 0] ------- [13:0 21:0 32 0] [148] 0 0
s 10.626349710 _13_ AGT  --- 1 149 cbr 210 [0 0 0 0] ------- [13:0 21:0 32 0] [149] 0 0
r 10.651153667 _21_ AGT  --- 1 148 cbr 230 [5 15 10 0] ------- [13:0 21:0 27 21] [148] 4 0
s 10.659949710 _13_ AGT  --- 1 150 cbr 210 [0 0 0 0] ------- [13:0 21:0 32 0] [150] 0 0
s 10.693549710 _13_ AGT  --- 1 151 cbr 210 [0 0 0 0] ------- [13:0 21:0 32 0] [151] 0 0
r 10.711153667 _21_ AGT  --- 1 150 cbr 230 [5 15 10 0] ------- [13:0 21:0 27 21] [150] 4 0
s 10.727149710 _13_ AGT  --- 1 152 cbr 210 [0 0 0 0] ------- [13:0 21:0 32 0] [152] 0 0
s 10.760749710 _13_ AGT  --- 1 153 cbr 210 [0 0 0 0] ------- [13:0 21:0 32 0] [153] 0 0
r 10.771153667 _21_ AGT  --- 1 152 cbr 230 [5 15 10 0] ------- [13:0 21:0 27 21] [152] 4 0
s 10.794349710 _13_ AGT  --- 1 154 cbr 210 [0 0 0 0] ------- [13:0 21:0 32 0] [154] 0 0
s 10.827949710 _13_ AGT  --- 1 155 cbr 210 [0 0 0 0] ------- [13:0 21:0 32 0] [155] 0 0
r 10.861153667 _21_ AGT  --- 1 154 cbr 230 [5 15 10 0] ------- [13:0 21:0 27 21] [154] 4 0
s 10.861549710 _13_ AGT  --- 1 156 cbr 210 [0 0 0 0] ------- [13:0 21:0 32 0] [156] 0 0
s 10.895149710 _13_ AGT  --- 1 157 cbr 210 [0 0 0 0] ------- [13:0 21:0 32 0] [157] 0 0
r 10.921153667 _21_ AGT  --- 1 156 cbr 230 [5 15 10 0] ------- [13:0 21:0 27 21] [156] 4 0
s 10.928749710 _13_ AGT  --- 1 158 cbr 210 [0 0 0 0] ------- [13:0 21:0 32 0] [158] 0 0
s 10.962349710 _13_ AGT  --- 1 159 cbr 210 [0 0 0 0] ------- [13:0 21:0 32 0] [159] 0 0
r 10.981153667 _21_ AGT  --- 1 158 cbr 230 [5 15 10 0] ------- [13:0 21:0 27 21] [158] 4 0
s 10.995949710 _13_ AGT  --- 1 160 cbr 210 [0 0 0 0] ------- [13:0 21:0 32 0] [160] 0 0
s 11.029549710 _13_ AGT  --- 1 161 cbr 210 [0 0 0 0] ------- [13:0 21:0 32 0] [161] 0 0
r 11.041153667 _21_ AGT  --- 1 160 cbr 230 [5 15 10 0] ------- [13:0 21:0 27 21] [160] 4 0
s 11.063149710 _13_ AGT  --- 1 162 cbr 210 [0 0 0 0] ------- [13:0 21:0 32 0] [162] 0 0
s 11.096749710 _13_ AGT  --- 1 163 cbr 210 [0 0 0 0] ------- [13:0 21:0 32 0] [163] 0 0
r 11.101153667 _21_ AGT  --- 1 162 cbr 230 [5 15 10 0] ------- [13:0 21:0 27 21] [162] 4 0
s 11.130349710 _13_ AGT  --- 1 164 cbr 210 [0 0 0 0] ------- [13:0 21:0 32 0] [164] 0 0
r 11.161153667 _21_ AGT  --- 1 163 cbr 230 [5 15 10 0] ------- [13:0 21:0 27 21] [163] 4 0
s 11.163949710 _13_ AGT  --- 1 165 cbr 210 [0 0 0 0] ------- [13:0 21:0 32 0] [165] 0 0
s 11.197549710 _13_ AGT  --- 1 166 cbr 210 [0 0 0 0] ------- [13:0 21:0 32 0] [166] 0 0
r 11.221153667 _21_ AGT  --- 1 165 cbr 230 [5 15 10 0] ------- [13:0 21:0 27 21] [165] 4 0
s 11.231149710 _13_ AGT  --- 1 167 cbr 210 [0 0 0 0] ------- [13:0 21:0 32 0] [167] 0 0
s 11.264749710 _13_ AGT  --- 1 168 cbr 210 [0 0 0 0] ------- [13:0 21:0 32 0] [168] 0 0
r 11.281153667 _21_ AGT  --- 1 167 cbr 230 [5 15 10 0] ------- [13:0 21:0 27 21] [167] 4 0
s 11.298349710 _13_ AGT  --- 1 169 cbr 210 [0 0 0 0] ------- [13:0 21:0 32 0] [169] 0 0
s 11.331949710 _13_ AGT  --- 1 170 cbr 210 [0 0 0 0] ------- [13:0 21:0 32 0] [170] 0 0
r 11.341153667 _21_ AGT  --- 1 169 cbr 230 [5 15 10 0] ------- [13:0 21:0 27 21] [169] 4 0
s 11.365549710 _13_ AGT  --- 1 171 cbr 210 [0 0 0 0] ------- [13:0 21:0 32 0] [171] 0 0
s 11.399149710 _13_ AGT  --- 1 172 cbr 210 [0 0 0 0] ------- [13:0 21:0 32 0] [172] 0 0
r 11.431153667 _21_ AGT  --- 1 171 cbr 230 [5 15 10 0] ------- [13:0 21:0 27 21] [171] 4 0
s 11.432749710 _13_ AGT  --- 1 173 cbr 210 [0 0 0 0] ------- [13:0 21:0 32 0] [173] 0 0
s 11.466349710 _13_ AGT  --- 1 174 cbr 210 [0 0 0 0] ------- [13:0 21:0 32 0] [174] 0 0
s 11.499949710 _13_ AGT  --- 1 175 cbr 210 [0 0 0 0] ------- [13:0 21:0 32 0] [175] 0 0
r 11.521153667 _21_ AGT  --- 1 173 cbr 230 [5 15 10 0] ------- [13:0 21:0 27 21] [173] 4 0
s 11.533549710 _13_ AGT  --- 1 176 cbr 210 [0 0 0 0] ------- [13:0 21:0 32 0] [176] 0 0
r 11.551153667 _21_ AGT  --- 1 174 cbr 230 [5 15 10 0] ------- [13:0 21:0 27 21] [174] 4 0
s 11.567149710 _13_ AGT  --- 1 177 cbr 210 [0 0 0 0] ------- [13:0 21:0 32 0] [177] 0 0
s 11.600749710 _13_ AGT  --- 1 178 cbr 210 [0 0 0 0] ------- [13:0 21:0 32 0] [178] 0 0
r 11.611153667 _21_ AGT  --- 1 177 cbr 230 [5 15 10 0] ------- [13:0 21:0 27 21] [177] 4 0
s 11.634349710 _13_ AGT  --- 1 179 cbr 210 [0 0 0 0] ------- [13:0 21:0 32 0] [179] 0 0
s 11.667949710 _13_ AGT  --- 1 180 cbr 210 [0 0 0 0] ------- [13:0 21:0 32 0] [180] 0 0
r 11.701153667 _21_ AGT  --- 1 179 cbr 230 [5 15 10 0] ------- [13:0 21:0 27 21] [179] 4 0
s 11.701549710 _13_ AGT  --- 1 181 cbr 210 [0 0 0 0] ------- [13:0 21:0 32 0] [181] 0 0
s 11.735149710 _13_ AGT  --- 1 182 cbr 210 [0 0 0 0] ------- [13:0 21:0 32 0] [182] 0 0
r 11.761153667 _21_ AGT  --- 1 181 cbr 230 [5 15 10 0] ------- [13:0 21:0 27 21] [181] 4 0
s 11.768749710 _13_ AGT  --- 1 183 cbr 210 [0 0 0 0] ------- [13:0 21:0 32 0] [183] 0 0
s 11.802349710 _13_ AGT  --- 1 184 cbr 210 [0 0 0 0] ------- [13:0 21:0 32 0] [184] 0 0
r 11.821153667 _21_ AGT  --- 1 183 cbr 230 [5 15 10 0] ------- [13:0 21:0 27 21] [183] 4 0
s 11.835949710 _13_ AGT  --- 1 185 cbr 210 [0 0 0 0] ------- [13:0 21:0 32 0] [185] 0 0
s 11.869549710 _13_ AGT  --- 1 186 cbr 210 [0 0 0 0] ------- [13:0 21:0 32 0] [186] 0 0
r 11.881153667 _21_ AGT  --- 1 185 cbr 230 [5 15 10 0] ------- [13:0 21:0 27 21] [185] 4 0
s 11.903149710 _13_ AGT  --- 1 187 cbr 210 [0 0 0 0] ------- [13:0 21:0 32 0] [187] 0 0
s 11.936749710 _13_ AGT  --- 1 188 cbr 210 [0 0 0 0] ------- [13:0 21:0 32 0] [188] 0 0
r 11.941153667 _21_ AGT  --- 1 187 cbr 230 [5 15 10 0] ------- [13:0 21:0 27 21] [187] 4 0
s 11.970349710 _13_ AGT  --- 1 189 cbr 210 [0 0 0 0] ------- [13:0 21:0 32 0] [189] 0 0
r 12.001153667 _21_ AGT  --- 1 188 cbr 230 [5 15 10 0] ------- [13:0 21:0 27 21] [188] 4 0
s 12.003949710 _13_ AGT  --- 1 190 cbr 210 [0 0 0 0] ------- [13:0 21:0 32 0] [190] 0 0
s 12.037549710 _13_ AGT  --- 1 191 cbr 210 [0 0 0 0] ------- [13:0 21:0 32 0] [191] 0 0
r 12.061153667 _21_ AGT  --- 1 190 cbr 230 [5 15 10 0] ------- [13:0 21:0 27 21] [190] 4 0
s 12.071149710 _13_ AGT  --- 1 192 cbr 210 [0 0 0 0] ------- [13:0 21:0 32 0] [192] 0 0
s 12.104749710 _13_ AGT  --- 1 193 cbr 210 [0 0 0 0] ------- [13:0 21:0 32 0] [193] 0 0
r 12.121153667 _21_ AGT  --- 1 192 cbr 230 [5 15 10 0] ------- [13:0 21:0 27 21] [192] 4 0
s 12.138349710 _13_ AGT  --- 1 194 cbr 210 [0 0 0 0] ------- [13:0 21:0 32 0] [194] 0 0
s 12.171949710 _13_ AGT  --- 1 195 cbr 210 [0 0 0 0] ------- [13:0 21:0 32 0] [195] 0 0
r 12.181153667 _21_ AGT  --- 1 194 cbr 230 [5 15 10 0] ------- [13:0 21:0 27 21] [194] 4 0
s 12.205549710 _13_ AGT  --- 1 196 cbr 210 [0 0 0 0] ------- [13:0 21:0 32 0] [196] 0 0
s 12.239149710 _13_ AGT  --- 1 197 cbr 210 [0 0 0 0] ------- [13:0 21:0 32 0] [197] 0 0
r 12.271153667 _21_ AGT  --- 1 196 cbr 230 [5 15 10 0] ------- [13:0 21:0 27 21] [196] 4 0
s 12.272749710 _13_ AGT  --- 1 198 cbr 210 [0 0 0 0] ------- [13:0 21:0 32 0] [198] 0 0
s 12.306349710 _13_ AGT  --- 1 199 cbr 210 [0 0 0 0] ------- [13:0 21:0 32 0] [199] 0 0
r 12.331153667 _21_ AGT  --- 1 198 cbr 230 [5 15 10 0] ------- [13:0 21:0 27 21] [198] 4 0
s 12.339949710 _13_ AGT  --- 1 200 cbr 210 [0 0 0 0] ------- [13:0 21:0 32 0] [200] 0 0
s 12.373549710 _13_ AGT  --- 1 201 cbr 210 [0 0 0 0] ------- [13:0 21:0 32 0] [201] 0 0
r 12.391153667 _21_ AGT  --- 1 200 cbr 230 [5 15 10 0] ------- [13:0 21:0 27 21] [200] 4 0
s 12.407149710 _13_ AGT  --- 1 202 cbr 210 [0 0 0 0] ------- [13:0 21:0 32 0] [202] 0 0
s 12.440749710 _13_ AGT  --- 1 203 cbr 210 [0 0 0 0] ------- [13:0 21:0 32 0] [203] 0 0
r 12.451153667 _21_ AGT  --- 1 202 cbr 230 [5 15 10 0] ------- [13:0 21:0 27 21] [202] 4 0
s 12.474349710 _13_ AGT  --- 1 204 cbr 210 [0 0 0 0] ------- [13:0 21:0 32 0] [204] 0 0
s 12.507949710 _13_ AGT  --- 1 205 cbr 210 [0 0 0 0] ------- [13:0 21:0 32 0] [205] 0 0
r 12.541153667 _21_ AGT  --- 1 204 cbr 230 [5 15 10 0] ------- [13:0 21:0 27 21] [204] 4 0
s 12.541549710 _13_ AGT  --- 1 206 cbr 210 [0 0 0 0] ------- [13:0 21:0 32 0] [206] 0 0
s 12.575149710 _13_ AGT  --- 1 207 cbr 210 [0 0 0 0] ------- [13:0 21:0 32 0] [207] 0 0
r 12.601153667 _21_ AGT  --- 1 206 cbr 230 [5 15 10 0] ------- [13:0 21:0 27 21] [206] 4 0
s 12.608749710 _13_ AGT  --- 1 208 cbr 210 [0 0 0 0] ------- [13:0 21:0 32 0] [208] 0 0
s 12.642349710 _13_ AGT  --- 1 209 cbr 210 [0 0 0 0] ------- [13:0 21:0 32 0] [209] 0 0
r 12.661153667 _21_ AGT  --- 1 208 cbr 230 [5 15 10 0] ------- [13:0 21:0 27 21] [208] 4 0
s 12.675949710 _13_ AGT  --- 1 210 cbr 210 [0 0 0 0] ------- [13:0 21:0 32 0] [210] 0 0
s 12.709549710 _13_ AGT  --- 1 211 cbr 210 [0 0 0 0] ------- [13:0 21:0 32 0] [211] 0 0
r 12.721153667 _21_ AGT  --- 1 210 cbr 230 [5 15 10 0] ------- [13:0 21:0 27 21] [210] 4 0
s 12.743149710 _13_ AGT  --- 1 212 cbr 210 [0 0 0 0] ------- [13:0 21:0 32 0] [212] 0 0
s 12.776749710 _13_ AGT  --- 1 213 cbr 210 [0 0 0 0] ------- [13:0 21:0 32 0] [213] 0 0
r 12.781153667 _21_ AGT  --- 1 211 cbr 230 [5 15 10 0] ------- [13:0 21:0 27 21] [211] 4 0
s 12.810349710 _13_ AGT  --- 1 214 cbr 210 [0 0 0 0] ------- [13:0 21:0 32 0] [214] 0 0
r 12.841153667 _21_ AGT  --- 1 213 cbr 230 [5 15 10 0] ------- [13:0 21:0 27 21] [213] 4 0
s 12.843949710 _13_ AGT  --- 1 215 cbr 210 [0 0 0 0] ------- [13:0 21:0 32 0] [215] 0 0
s 12.877549710 _13_ AGT  --- 1 216 cbr 210 [0 0 0 0] ------- [13:0 21:0 32 0] [216] 0 0
r 12.901153667 _21_ AGT  --- 1 215 cbr 230 [5 15 10 0] ------- [13:0 21:0 27 21] [215] 4 0
s 12.911149710 _13_ AGT  --- 1 217 cbr 210 [0 0 0 0] ------- [13:0 21:0 32 0] [217] 0 0
s 12.944749710 _13_ AGT  --- 1 218 cbr 210 [0 0 0 0] ------- [13:0 21:0 32 0] [218] 0 0
r 12.961153667 _21_ AGT  --- 1 217 cbr 230 [5 15 10 0] ------- [13:0 21:0 27 21] [217] 4 0
s 12.978349710 _13_ AGT  --- 1 219 cbr 210 [0 0 0 0] ------- [13:0 21:0 32 0] [219] 0 0
s 13.011949710 _13_ AGT  --- 1 220 cbr 210 [0 0 0 0] ------- [13:0 21:0 32 0] [220] 0 0
r 13.021153667 _21_ AGT  --- 1 219 cbr 230 [5 15 10 0] ------- [13:0 21:0 27 21] [219] 4 0
s 13.045549710 _13_ AGT  --- 1 221 cbr 210 [0 0 0 0] ------- [13:0 21:0 32 0] [221] 0 0
s 13.079149710 _13_ AGT  --- 1 222 cbr 210 [0 0 0 0] ------- [13:0 21:0 32 0] [222] 0 0
r 13.111153667 _21_ AGT  --- 1 221 cbr 230 [5 15 10 0] ------- [13:0 21:0 27 21] [221] 4 0
s 13.112749710 _13_ AGT  --- 1 223 cbr 210 [0 0 0 0] ------- [13:0 21:0 32 0] [223] 0 0
s 13.146349710 _13_ AGT  --- 1 224 cbr 210 [0 0 0 0] ------- [13:0 21:0 32 0] [224] 0 0
r 13.171153667 _21_ AGT  --- 1 223 cbr 230 [5 15 10 0] ------- [13:0 21:0 27 21] [223] 4 0
s 13.179949710 _13_ AGT  --- 1 225 cbr 210 [0 0 0 0] ------- [13:0 21:0 32 0] [225] 0 0
s 13.213549710 _13_ AGT  --- 1 226 cbr 210 [0 0 0 0] ------- [13:0 21:0 32 0] [226] 0 0
r 13.231153667 _21_ AGT  --- 1 225 cbr 230 [5 15 10 0] ------- [13:0 21:0 27 21] [225] 4 0